 vasp.5.4.4.18Apr17-6-g9f103f2a35 (build Mar 19 2019 20:38:45) complex          
  
 executed on             LinuxIFC date 2021.09.28  17:05:49
 running on   24 total cores
 distrk:  each k-point on   24 cores,    1 groups
 distr:  one band on NCORES_PER_BAND=   1 cores,   24 groups


--------------------------------------------------------------------------------------------------------


 INCAR:
 POTCAR:    PAW_PBE Mo_sv 02Feb2006               
 POTCAR:    PAW_PBE S 06Sep2000                   

 ----------------------------------------------------------------------------- 
|                                                                             |
|           W    W    AA    RRRRR   N    N  II  N    N   GGGG   !!!           |
|           W    W   A  A   R    R  NN   N  II  NN   N  G    G  !!!           |
|           W    W  A    A  R    R  N N  N  II  N N  N  G       !!!           |
|           W WW W  AAAAAA  RRRRR   N  N N  II  N  N N  G  GGG   !            |
|           WW  WW  A    A  R   R   N   NN  II  N   NN  G    G                |
|           W    W  A    A  R    R  N    N  II  N    N   GGGG   !!!           |
|                                                                             |
|      For optimal performance we recommend to set                            |
|        NCORE= 4 - approx SQRT( number of cores)                             |
|      NCORE specifies how many cores store one orbital (NPAR=cpu/NCORE).     |
|      This setting can  greatly improve the performance of VASP for DFT.     |
|      The default,   NCORE=1            might be grossly inefficient         |
|      on modern multi-core architectures or massively parallel machines.     |
|      Do your own testing !!!!                                               |
|      Unfortunately you need to use the default for GW and RPA calculations. |
|      (for HF NCORE is supported but not extensively tested yet)             |
|                                                                             |
 ----------------------------------------------------------------------------- 

 POTCAR:    PAW_PBE Mo_sv 02Feb2006               
   VRHFIN =Mo: 4p5s4d                                                           
   LEXCH  = PE                                                                  
   EATOM  =  1862.2866 eV,  136.8742 Ry                                         
                                                                                
   TITEL  = PAW_PBE Mo_sv 02Feb2006                                             
   LULTRA =        F    use ultrasoft PP ?                                      
   IUNSCR =        1    unscreen: 0-lin 1-nonlin 2-no                           
   RPACOR =    2.200    partial core radius                                     
   POMASS =   95.940; ZVAL   =   14.000    mass and valenz                      
   RCORE  =    2.500    outmost cutoff radius                                   
   RWIGS  =    2.750; RWIGS  =    1.455    wigner-seitz radius (au A)           
   ENMAX  =  242.676; ENMIN  =  182.007 eV                                      
   ICORE  =        3    local potential                                         
   LCOR   =        T    correct aug charges                                     
   LPAW   =        T    paw PP                                                  
   EAUG   =  446.014                                                            
   DEXC   =    0.000                                                            
   RMAX   =    2.563    core radius for proj-oper                               
   RAUG   =    1.300    factor for augmentation sphere                          
   RDEP   =    2.641    radius for radial grids                                 
   RDEPT  =    2.031    core radius for aug-charge                              
                                                                                
   Atomic configuration                                                         
   11 entries                                                                   
     n  l   j            E        occ.                                          
     1  0  0.50    -19819.0341   2.0000                                         
     2  0  0.50     -2799.0127   2.0000                                         
     2  1  1.50     -2502.0276   6.0000                                         
     3  0  0.50      -476.4449   2.0000                                         
     3  1  1.50      -379.1496   6.0000                                         
     3  2  2.50      -220.9367  10.0000                                         
     4  0  0.50       -64.3378   2.0000                                         
     5  0  0.50        -4.0862   1.0000                                         
     4  1  1.50       -38.4773   6.0000                                         
     4  2  2.50        -3.7535   5.0000                                         
     4  3  2.50        -1.3606   0.0000                                         
   Description                                                                  
     l       E           TYP  RCUT    TYP  RCUT                                 
     0    -64.3377829     23  2.100                                             
     0     -4.0861640     23  2.400                                             
     1    -38.4772993     23  2.100                                             
     1     13.6058260     23  2.100                                             
     2     -3.7534941     23  2.400                                             
     2     -5.1140767     23  2.400                                             
     3     -4.0817478     23  2.500                                             
  local pseudopotential read in
  partial core-charges read in
  partial kinetic energy density read in
  atomic valenz-charges read in
  non local Contribution for L=           0  read in
    real space projection operators read in
  non local Contribution for L=           0  read in
    real space projection operators read in
  non local Contribution for L=           1  read in
    real space projection operators read in
  non local Contribution for L=           1  read in
    real space projection operators read in
  non local Contribution for L=           2  read in
    real space projection operators read in
  non local Contribution for L=           2  read in
    real space projection operators read in
    PAW grid and wavefunctions read in
 
   number of l-projection  operators is LMAX  =           6
   number of lm-projection operators is LMMAX =          18
 
 POTCAR:    PAW_PBE S 06Sep2000                   
   VRHFIN =S : s2p4                                                             
   LEXCH  = PE                                                                  
   EATOM  =   276.8230 eV,   20.3459 Ry                                         
                                                                                
   TITEL  = PAW_PBE S 06Sep2000                                                 
   LULTRA =        F    use ultrasoft PP ?                                      
   IUNSCR =        1    unscreen: 0-lin 1-nonlin 2-no                           
   RPACOR =    1.500    partial core radius                                     
   POMASS =   32.066; ZVAL   =    6.000    mass and valenz                      
   RCORE  =    1.900    outmost cutoff radius                                   
   RWIGS  =    2.200; RWIGS  =    1.164    wigner-seitz radius (au A)           
   ENMAX  =  258.689; ENMIN  =  194.016 eV                                      
   ICORE  =        2    local potential                                         
   LCOR   =        T    correct aug charges                                     
   LPAW   =        T    paw PP                                                  
   EAUG   =  335.092                                                            
   DEXC   =    0.000                                                            
   RMAX   =    1.942    core radius for proj-oper                               
   RAUG   =    1.300    factor for augmentation sphere                          
   RDEP   =    1.954    radius for radial grids                                 
   RDEPT  =    1.744    core radius for aug-charge                              
                                                                                
   Atomic configuration                                                         
    6 entries                                                                   
     n  l   j            E        occ.                                          
     1  0  0.50     -2405.8406   2.0000                                         
     2  0  0.50      -211.7007   2.0000                                         
     2  1  1.50      -156.4958   6.0000                                         
     3  0  0.50       -17.2562   2.0000                                         
     3  1  0.50        -7.0085   4.0000                                         
     3  2  1.50        -6.8029   0.0000                                         
   Description                                                                  
     l       E           TYP  RCUT    TYP  RCUT                                 
     0    -17.2561641     23  1.900                                             
     0    -15.8743224     23  1.900                                             
     1     -7.0085400     23  1.900                                             
     1     -2.7779785     23  1.900                                             
     2     -6.8029130     23  1.900                                             
  local pseudopotential read in
  partial core-charges read in
  partial kinetic energy density read in
  atomic valenz-charges read in
  non local Contribution for L=           0  read in
    real space projection operators read in
  non local Contribution for L=           0  read in
    real space projection operators read in
  non local Contribution for L=           1  read in
    real space projection operators read in
  non local Contribution for L=           1  read in
    real space projection operators read in
    PAW grid and wavefunctions read in
 
   number of l-projection  operators is LMAX  =           4
   number of lm-projection operators is LMMAX =           8
 

 ----------------------------------------------------------------------------- 
|                                                                             |
|  ADVICE TO THIS USER RUNNING 'VASP/VAMP'   (HEAR YOUR MASTER'S VOICE ...):  |
|                                                                             |
|      You have a (more or less) 'small supercell' and for smaller cells      |
|      it is recommended  to use the reciprocal-space projection scheme!      |
|      The real space optimization is not  efficient for small cells and it   |
|      is also less accurate ...                                              |
|      Therefore set LREAL=.FALSE. in the  INCAR file                         |
|                                                                             |
 ----------------------------------------------------------------------------- 

 Optimization of the real space projectors (new method)

 maximal supplied QI-value         = 15.12
 optimisation between [QCUT,QGAM] = [ 11.34, 22.83] = [ 36.00,145.93] Ry 
 Optimized for a Real-space Cutoff    1.52 Angstroem

   l    n(q)    QCUT    max X(q) W(low)/X(q) W(high)/X(q)  e(spline) 
   0     10    11.338     3.559    0.29E-04    0.28E-04    0.16E-06
   0     10    11.338    20.730    0.48E-04    0.29E-04    0.19E-06
   1     10    11.338     3.279    0.19E-05    0.50E-05    0.27E-07
   1     10    11.338     4.693    0.70E-04    0.92E-04    0.29E-06
   2      9    11.338    67.616    0.24E-03    0.32E-03    0.71E-06
   2      9    11.338    62.420    0.24E-03    0.32E-03    0.71E-06
 Optimization of the real space projectors (new method)

 maximal supplied QI-value         = 19.84
 optimisation between [QCUT,QGAM] = [ 11.31, 22.82] = [ 35.82,145.81] Ry 
 Optimized for a Real-space Cutoff    1.20 Angstroem

   l    n(q)    QCUT    max X(q) W(low)/X(q) W(high)/X(q)  e(spline) 
   0      8    11.310   187.594    0.16E-03    0.19E-03    0.53E-07
   0      8    11.310   164.243    0.16E-03    0.19E-03    0.53E-07
   1      8    11.310    67.533    0.18E-03    0.19E-03    0.92E-07
   1      8    11.310    50.729    0.18E-03    0.19E-03    0.90E-07
  PAW_PBE Mo_sv 02Feb2006               :
 energy of atom  1       EATOM=-1862.2866
 kinetic energy error for atom=    0.0074 (will be added to EATOM!!)
  PAW_PBE S 06Sep2000                   :
 energy of atom  2       EATOM= -276.8230
 kinetic energy error for atom=    0.0020 (will be added to EATOM!!)
 
 
 POSCAR: MoS2-3.16                               
  positions in direct lattice
  velocities in cartesian coordinates
 exchange correlation table for  LEXCH =        8
   RHO(1)=    0.500       N(1)  =     2000
   RHO(2)=  100.500       N(2)  =     4000
 


--------------------------------------------------------------------------------------------------------


 ion  position               nearest neighbor table
   1  0.332  0.666  0.375-   3 2.40   3 2.40   3 2.40   2 2.40   2 2.40   2 2.40
   2  0.665  0.333  0.310-   1 2.40   1 2.40   1 2.40
   3  0.665  0.333  0.440-   1 2.40   1 2.40   1 2.40
 

IMPORTANT INFORMATION: All symmetrisations will be switched off!
NOSYMM: (Re-)initialisation of all symmetry stuff for point group C_1.

 
 
 KPOINTS: k-points for bandsture G-K-M-G          
  interpolating k-points between supplied coordinates
  k-points in reciprocal lattice
Space group operators:
 irot       det(A)        alpha          n_x          n_y          n_z        tau_x        tau_y        tau_z
    1     1.000000     0.000000     1.000000     0.000000     0.000000     0.000000     0.000000     0.000000

 ----------------------------------------------------------------------------- 
|                                                                             |
|           W    W    AA    RRRRR   N    N  II  N    N   GGGG   !!!           |
|           W    W   A  A   R    R  NN   N  II  NN   N  G    G  !!!           |
|           W    W  A    A  R    R  N N  N  II  N N  N  G       !!!           |
|           W WW W  AAAAAA  RRRRR   N  N N  II  N  N N  G  GGG   !            |
|           WW  WW  A    A  R   R   N   NN  II  N   NN  G    G                |
|           W    W  A    A  R    R  N    N  II  N    N   GGGG   !!!           |
|                                                                             |
|      The number of bands has been changed from the values supplied          |
|      in the INCAR file. This is a result of running the parallel version.   |
|      The orbitals not found in the WAVECAR file will be initialized with    |
|      random numbers, which is usually adequate. For correlated              |
|      calculations, however, you should redo the groundstate calculation.    |
|      I found NBANDS    =       30  now  NBANDS  =      48                   |
|                                                                             |
 ----------------------------------------------------------------------------- 



--------------------------------------------------------------------------------------------------------




 Dimension of arrays:
   k-points           NKPTS =    124   k-points in BZ     NKDIM =    124   number of bands    NBANDS=     48
   number of dos      NEDOS =   2000   number of ions     NIONS =      3
   non local maximal  LDIM  =      6   non local SUM 2l+1 LMDIM =     18
   total plane-waves  NPLWV = 103680
   max r-space proj   IRMAX =   7367   max aug-charges    IRDMAX=  22010
   dimension x,y,z NGX =    24 NGY =   24 NGZ =  180
   dimension x,y,z NGXF=    48 NGYF=   48 NGZF=  360
   support grid    NGXF=    48 NGYF=   48 NGZF=  360
   ions per type =               1   2
   NGX,Y,Z   is equivalent  to a cutoff of  12.65, 12.65, 12.40 a.u.
   NGXF,Y,Z  is equivalent  to a cutoff of  25.30, 25.30, 24.80 a.u.

 SYSTEM =  WS2                                     
 POSCAR =  MoS2-3.16                               

 Startparameter for this run:
   NWRITE =      2    write-flag & timer
   PREC   = accura    normal or accurate (medium, high low for compatibility)
   ISTART =      1    job   : 0-new  1-cont  2-samecut
   ICHARG =     11    charge: 1-file 2-atom 10-const
   ISPIN  =      1    spin polarized calculation?
   LNONCOLLINEAR =      T non collinear calculations
   LSORBIT =      T    spin-orbit coupling
   INIWAV =      1    electr: 0-lowe 1-rand  2-diag
   LASPH  =      F    aspherical Exc in radial PAW
   METAGGA=      F    non-selfconsistent MetaGGA calc.

 Electronic Relaxation 1
   ENCUT  =  500.0 eV  36.75 Ry    6.06 a.u.   5.75  5.75 44.00*2*pi/ulx,y,z
   ENINI  =  500.0     initial cutoff
   ENAUG  =  446.0 eV  augmentation charge cutoff
   NELM   =    120;   NELMIN=  2; NELMDL=  0     # of ELM steps 
   EDIFF  = 0.1E-04   stopping-criterion for ELM
   LREAL  =      T    real-space projection
   NLSPLINE    = F    spline interpolate recip. space projectors
   LCOMPAT=      F    compatible to vasp.4.4
   GGA_COMPAT  = T    GGA compatible to vasp.4.4-vasp.4.6
   LMAXPAW     = -100 max onsite density
   LMAXMIX     =    2 max onsite mixed and CHGCAR
   VOSKOWN=      0    Vosko Wilk Nusair interpolation
   ROPT   =   -0.00025  -0.00025
 Ionic relaxation
   EDIFFG = -.1E-02   stopping-criterion for IOM
   NSW    =      0    number of steps for IOM
   NBLOCK =      1;   KBLOCK =      1    inner block; outer block 
   IBRION =     -1    ionic relax: 0-MD 1-quasi-New 2-CG
   NFREE  =      1    steps in history (QN), initial steepest desc. (CG)
   ISIF   =      2    stress and relaxation
   IWAVPR =     10    prediction:  0-non 1-charg 2-wave 3-comb
   ISYM   =      0    0-nonsym 1-usesym 2-fastsym
   LCORR  =      T    Harris-Foulkes like correction to forces

   POTIM  = 0.1000    time-step for ionic-motion
   TEIN   =    0.0    initial temperature
   TEBEG  =    0.0;   TEEND  =   0.0 temperature during run
   SMASS  =  -3.00    Nose mass-parameter (am)
   estimated Nose-frequenzy (Omega)   =  0.10E-29 period in steps =****** mass=  -0.227E-27a.u.
   SCALEE = 1.0000    scale energy and forces
   NPACO  =    256;   APACO  = 16.0  distance and # of slots for P.C.
   PSTRESS=    0.0 pullay stress

  Mass of Ions in am
   POMASS =  95.94 32.07
  Ionic Valenz
   ZVAL   =  14.00  6.00
  Atomic Wigner-Seitz radii
   RWIGS  =  -1.00 -1.00
  virtual crystal weights 
   VCA    =   1.00  1.00
   NELECT =      26.0000    total number of electrons
   NUPDOWN=      -1.0000    fix difference up-down

 DOS related values:
   EMIN   =  10.00;   EMAX   =-10.00  energy-range for DOS
   EFERMI =   0.00
   ISMEAR =     0;   SIGMA  =   0.05  broadening in eV -4-tet -1-fermi 0-gaus

 Electronic relaxation 2 (details)
   IALGO  =     38    algorithm
   LDIAG  =      T    sub-space diagonalisation (order eigenvalues)
   LSUBROT=      F    optimize rotation matrix (better conditioning)
   TURBO    =      0    0=normal 1=particle mesh
   IRESTART =      0    0=no restart 2=restart with 2 vectors
   NREBOOT  =      0    no. of reboots
   NMIN     =      0    reboot dimension
   EREF     =   0.00    reference energy to select bands
   IMIX   =      4    mixing-type and parameters
     AMIX     =   0.40;   BMIX     =  1.00
     AMIX_MAG =   1.60;   BMIX_MAG =  1.00
     AMIN     =   0.10
     WC   =   100.;   INIMIX=   1;  MIXPRE=   1;  MAXMIX= -45

 Intra band minimization:
   WEIMIN = 0.0000     energy-eigenvalue tresh-hold
   EBREAK =  0.52E-07  absolut break condition
   DEPER  =   0.30     relativ break condition  

   TIME   =   0.40     timestep for ELM

  volume/ion in A,a.u.               =      69.29       467.58
  Fermi-wavevector in a.u.,A,eV,Ry     =   0.818725  1.547167  9.120138  0.670311
  Thomas-Fermi vector in A             =   1.929403
 
 Write flags
   LWAVE        =      T    write WAVECAR
   LDOWNSAMPLE  =      F    k-point downsampling of WAVECAR
   LCHARG       =      T    write CHGCAR
   LVTOT        =      F    write LOCPOT, total local potential
   LVHAR        =      F    write LOCPOT, Hartree potential only
   LELF         =      F    write electronic localiz. function (ELF)
   LORBIT       =     11    0 simple, 1 ext, 2 COOP (PROOUT), +10 PAW based schemes


 Dipole corrections
   LMONO  =      F    monopole corrections only (constant potential shift)
   LDIPOL =      F    correct potential (dipole corrections)
   IDIPOL =      0    1-x, 2-y, 3-z, 4-all directions 
   EPSILON=  1.0000000 bulk dielectric constant

 Exchange correlation treatment:
   GGA     =    --    GGA type
   LEXCH   =     8    internal setting for exchange type
   VOSKOWN=      0    Vosko Wilk Nusair interpolation
   LHFCALC =     F    Hartree Fock is set to
   LHFONE  =     F    Hartree Fock one center treatment
   AEXX    =    0.0000 exact exchange contribution

 Linear response parameters
   LEPSILON=     F    determine dielectric tensor
   LRPA    =     F    only Hartree local field effects (RPA)
   LNABLA  =     F    use nabla operator in PAW spheres
   LVEL    =     F    velocity operator in full k-point grid
   LINTERFAST=   F  fast interpolation
   KINTER  =     0    interpolate to denser k-point grid
   CSHIFT  =0.1000    complex shift for real part using Kramers Kronig
   OMEGAMAX=  -1.0    maximum frequency
   DEG_THRESHOLD= 0.2000000E-02 threshold for treating states as degnerate
   RTIME   =   -0.100 relaxation time in fs
  (WPLASMAI=    0.000 imaginary part of plasma frequency in eV, 0.658/RTIME)
   DFIELD  = 0.0000000 0.0000000 0.0000000 field for delta impulse in time
 
 Orbital magnetization related:
   ORBITALMAG=     F  switch on orbital magnetization
   LCHIMAG   =     F  perturbation theory with respect to B field
   DQ        =  0.001000  dq finite difference perturbation B field
   LLRAUG    =     F  two centre corrections for induced B field



--------------------------------------------------------------------------------------------------------


 Static calculation
 charge density and potential remain constant during run
 non collinear spin polarized calculation
 Variant of blocked Davidson
 Davidson routine will perform the subspace rotation
 perform sub-space diagonalisation
    after iterative eigenvector-optimisation
 no mixing
 using additional bands           35
 real space projection scheme for non local part
 use partial core corrections
 calculate Harris-corrections to forces 
   (improved forces if not selfconsistent)
 use gradient corrections 
 WARNING: stress and forces are not correct
  (second derivative of E(xc) not defined)
 use of overlap-Matrix (Vanderbilt PP)
 Gauss-broadening in eV      SIGMA  =   0.05


--------------------------------------------------------------------------------------------------------


  energy-cutoff  :      500.00
  volume of cell :      207.87
      direct lattice vectors                 reciprocal lattice vectors
     3.153803002  0.000001722  0.000005255     0.317077409  0.183064302 -0.000001042
    -1.576895282  2.731269097  0.000005016    -0.000000200  0.366130048 -0.000001025
     0.000040249  0.000067590 24.131478925    -0.000000069 -0.000000116  0.041439648

  length of vectors
     3.153803002  3.153796063 24.131478925     0.366129242  0.366130048  0.041439648


 
 old parameters found on file WAVECAR:
  energy-cutoff  :      500.00
  volume of cell :      207.87
      direct lattice vectors                 reciprocal lattice vectors
     3.153803002  0.000001722  0.000005255     0.317077409  0.183064302 -0.000001042
    -1.576895282  2.731269097  0.000005016    -0.000000200  0.366130048 -0.000001025
     0.000040249  0.000067590 24.131478925    -0.000000069 -0.000000116  0.041439648

  length of vectors

 
 k-points in units of 2pi/SCALE and weight: k-points for bandsture G-K-M-G          
   0.00000000  0.00000000  0.00000000       0.008
   0.00352308  0.00610215 -0.00000002       0.008
   0.00704615  0.01220431 -0.00000005       0.008
   0.01056923  0.01830646 -0.00000007       0.008
   0.01409231  0.02440861 -0.00000009       0.008
   0.01761538  0.03051077 -0.00000011       0.008
   0.02113846  0.03661292 -0.00000014       0.008
   0.02466154  0.04271507 -0.00000016       0.008
   0.02818461  0.04881723 -0.00000018       0.008
   0.03170769  0.05491938 -0.00000021       0.008
   0.03523077  0.06102153 -0.00000023       0.008
   0.03875384  0.06712369 -0.00000025       0.008
   0.04227692  0.07322584 -0.00000028       0.008
   0.04580000  0.07932799 -0.00000030       0.008
   0.04932307  0.08543015 -0.00000032       0.008
   0.05284615  0.09153230 -0.00000034       0.008
   0.05636923  0.09763445 -0.00000037       0.008
   0.05989230  0.10373661 -0.00000039       0.008
   0.06341538  0.10983876 -0.00000041       0.008
   0.06693846  0.11594091 -0.00000044       0.008
   0.07046153  0.12204307 -0.00000046       0.008
   0.07398461  0.12814522 -0.00000048       0.008
   0.07750768  0.13424737 -0.00000051       0.008
   0.08103076  0.14034953 -0.00000053       0.008
   0.08455384  0.14645168 -0.00000055       0.008
   0.08807691  0.15255383 -0.00000057       0.008
   0.09159999  0.15865599 -0.00000060       0.008
   0.09512307  0.16475814 -0.00000062       0.008
   0.09864614  0.17086029 -0.00000064       0.008
   0.10216922  0.17696245 -0.00000067       0.008
   0.10569230  0.18306460 -0.00000069       0.008
   0.10569230  0.18306460 -0.00000069       0.008
   0.10216922  0.18306461 -0.00000068       0.008
   0.09864614  0.18306463 -0.00000068       0.008
   0.09512306  0.18306464 -0.00000067       0.008
   0.09159998  0.18306466 -0.00000067       0.008
   0.08807690  0.18306467 -0.00000066       0.008
   0.08455382  0.18306468 -0.00000065       0.008
   0.08103074  0.18306470 -0.00000065       0.008
   0.07750766  0.18306471 -0.00000064       0.008
   0.07398458  0.18306473 -0.00000064       0.008
   0.07046150  0.18306474 -0.00000063       0.008
   0.06693842  0.18306476 -0.00000062       0.008
   0.06341534  0.18306477 -0.00000062       0.008
   0.05989226  0.18306478 -0.00000061       0.008
   0.05636918  0.18306480 -0.00000061       0.008
   0.05284610  0.18306481 -0.00000060       0.008
   0.04932302  0.18306483 -0.00000060       0.008
   0.04579994  0.18306484 -0.00000059       0.008
   0.04227686  0.18306485 -0.00000058       0.008
   0.03875378  0.18306487 -0.00000058       0.008
   0.03523070  0.18306488 -0.00000057       0.008
   0.03170762  0.18306490 -0.00000057       0.008
   0.02818454  0.18306491 -0.00000056       0.008
   0.02466146  0.18306493 -0.00000055       0.008
   0.02113838  0.18306494 -0.00000055       0.008
   0.01761530  0.18306495 -0.00000054       0.008
   0.01409222  0.18306497 -0.00000054       0.008
   0.01056914  0.18306498 -0.00000053       0.008
   0.00704606  0.18306500 -0.00000052       0.008
   0.00352298  0.18306501 -0.00000052       0.008
  -0.00000010  0.18306502 -0.00000051       0.008
  -0.00000010  0.18306502 -0.00000051       0.008
  -0.00352318  0.18306503 -0.00000051       0.008
  -0.00704626  0.18306503 -0.00000050       0.008
  -0.01056934  0.18306503 -0.00000050       0.008
  -0.01409242  0.18306503 -0.00000049       0.008
  -0.01761550  0.18306503 -0.00000048       0.008
  -0.02113858  0.18306504 -0.00000048       0.008
  -0.02466166  0.18306504 -0.00000047       0.008
  -0.02818474  0.18306504 -0.00000047       0.008
  -0.03170782  0.18306504 -0.00000046       0.008
  -0.03523090  0.18306504 -0.00000045       0.008
  -0.03875398  0.18306505 -0.00000045       0.008
  -0.04227706  0.18306505 -0.00000044       0.008
  -0.04580014  0.18306505 -0.00000044       0.008
  -0.04932322  0.18306505 -0.00000043       0.008
  -0.05284630  0.18306505 -0.00000042       0.008
  -0.05636938  0.18306505 -0.00000042       0.008
  -0.05989246  0.18306506 -0.00000041       0.008
  -0.06341554  0.18306506 -0.00000041       0.008
  -0.06693862  0.18306506 -0.00000040       0.008
  -0.07046170  0.18306506 -0.00000040       0.008
  -0.07398478  0.18306506 -0.00000039       0.008
  -0.07750786  0.18306507 -0.00000038       0.008
  -0.08103094  0.18306507 -0.00000038       0.008
  -0.08455402  0.18306507 -0.00000037       0.008
  -0.08807710  0.18306507 -0.00000037       0.008
  -0.09160018  0.18306507 -0.00000036       0.008
  -0.09512326  0.18306508 -0.00000035       0.008
  -0.09864634  0.18306508 -0.00000035       0.008
  -0.10216942  0.18306508 -0.00000034       0.008
  -0.10569250  0.18306508 -0.00000034       0.008
  -0.10569250  0.18306508 -0.00000034       0.008
  -0.10216941  0.17696291 -0.00000033       0.008
  -0.09864633  0.17086074 -0.00000031       0.008
  -0.09512325  0.16475857 -0.00000030       0.008
  -0.09160016  0.15865640 -0.00000029       0.008
  -0.08807708  0.15255423 -0.00000028       0.008
  -0.08455400  0.14645207 -0.00000027       0.008
  -0.08103091  0.14034990 -0.00000026       0.008
  -0.07750783  0.13424773 -0.00000025       0.008
  -0.07398475  0.12814556 -0.00000024       0.008
  -0.07046166  0.12204339 -0.00000022       0.008
  -0.06693858  0.11594122 -0.00000021       0.008
  -0.06341550  0.10983905 -0.00000020       0.008
  -0.05989242  0.10373688 -0.00000019       0.008
  -0.05636933  0.09763471 -0.00000018       0.008
  -0.05284625  0.09153254 -0.00000017       0.008
  -0.04932317  0.08543037 -0.00000016       0.008
  -0.04580008  0.07932820 -0.00000015       0.008
  -0.04227700  0.07322603 -0.00000013       0.008
  -0.03875392  0.06712386 -0.00000012       0.008
  -0.03523083  0.06102169 -0.00000011       0.008
  -0.03170775  0.05491952 -0.00000010       0.008
  -0.02818467  0.04881736 -0.00000009       0.008
  -0.02466158  0.04271519 -0.00000008       0.008
  -0.02113850  0.03661302 -0.00000007       0.008
  -0.01761542  0.03051085 -0.00000006       0.008
  -0.01409233  0.02440868 -0.00000004       0.008
  -0.01056925  0.01830651 -0.00000003       0.008
  -0.00704617  0.01220434 -0.00000002       0.008
  -0.00352308  0.00610217 -0.00000001       0.008
   0.00000000 -0.00000000  0.00000000       0.008
 
 k-points in reciprocal lattice and weights: k-points for bandsture G-K-M-G          
   0.00000000  0.00000000  0.00000000       0.008
   0.01111110  0.01111110  0.00000000       0.008
   0.02222220  0.02222220  0.00000000       0.008
   0.03333330  0.03333330  0.00000000       0.008
   0.04444440  0.04444440  0.00000000       0.008
   0.05555550  0.05555550  0.00000000       0.008
   0.06666660  0.06666660  0.00000000       0.008
   0.07777770  0.07777770  0.00000000       0.008
   0.08888880  0.08888880  0.00000000       0.008
   0.09999990  0.09999990  0.00000000       0.008
   0.11111100  0.11111100  0.00000000       0.008
   0.12222210  0.12222210  0.00000000       0.008
   0.13333320  0.13333320  0.00000000       0.008
   0.14444430  0.14444430  0.00000000       0.008
   0.15555540  0.15555540  0.00000000       0.008
   0.16666650  0.16666650  0.00000000       0.008
   0.17777760  0.17777760  0.00000000       0.008
   0.18888870  0.18888870  0.00000000       0.008
   0.19999980  0.19999980  0.00000000       0.008
   0.21111090  0.21111090  0.00000000       0.008
   0.22222200  0.22222200  0.00000000       0.008
   0.23333310  0.23333310  0.00000000       0.008
   0.24444420  0.24444420  0.00000000       0.008
   0.25555530  0.25555530  0.00000000       0.008
   0.26666640  0.26666640  0.00000000       0.008
   0.27777750  0.27777750  0.00000000       0.008
   0.28888860  0.28888860  0.00000000       0.008
   0.29999970  0.29999970  0.00000000       0.008
   0.31111080  0.31111080  0.00000000       0.008
   0.32222190  0.32222190  0.00000000       0.008
   0.33333300  0.33333300  0.00000000       0.008
   0.33333300  0.33333300  0.00000000       0.008
   0.32222190  0.33888857  0.00000000       0.008
   0.31111080  0.34444413  0.00000000       0.008
   0.29999970  0.34999970  0.00000000       0.008
   0.28888860  0.35555527  0.00000000       0.008
   0.27777750  0.36111083  0.00000000       0.008
   0.26666640  0.36666640  0.00000000       0.008
   0.25555530  0.37222197  0.00000000       0.008
   0.24444420  0.37777753  0.00000000       0.008
   0.23333310  0.38333310  0.00000000       0.008
   0.22222200  0.38888867  0.00000000       0.008
   0.21111090  0.39444423  0.00000000       0.008
   0.19999980  0.39999980  0.00000000       0.008
   0.18888870  0.40555537  0.00000000       0.008
   0.17777760  0.41111093  0.00000000       0.008
   0.16666650  0.41666650  0.00000000       0.008
   0.15555540  0.42222207  0.00000000       0.008
   0.14444430  0.42777763  0.00000000       0.008
   0.13333320  0.43333320  0.00000000       0.008
   0.12222210  0.43888877  0.00000000       0.008
   0.11111100  0.44444433  0.00000000       0.008
   0.09999990  0.44999990  0.00000000       0.008
   0.08888880  0.45555547  0.00000000       0.008
   0.07777770  0.46111103  0.00000000       0.008
   0.06666660  0.46666660  0.00000000       0.008
   0.05555550  0.47222217  0.00000000       0.008
   0.04444440  0.47777773  0.00000000       0.008
   0.03333330  0.48333330  0.00000000       0.008
   0.02222220  0.48888887  0.00000000       0.008
   0.01111110  0.49444443  0.00000000       0.008
  -0.00000000  0.50000000  0.00000000       0.008
   0.00000000  0.50000000  0.00000000       0.008
  -0.01111110  0.50555553  0.00000000       0.008
  -0.02222220  0.51111107  0.00000000       0.008
  -0.03333330  0.51666660  0.00000000       0.008
  -0.04444440  0.52222213  0.00000000       0.008
  -0.05555550  0.52777767  0.00000000       0.008
  -0.06666660  0.53333320  0.00000000       0.008
  -0.07777770  0.53888873  0.00000000       0.008
  -0.08888880  0.54444427  0.00000000       0.008
  -0.09999990  0.54999980  0.00000000       0.008
  -0.11111100  0.55555533  0.00000000       0.008
  -0.12222210  0.56111087  0.00000000       0.008
  -0.13333320  0.56666640  0.00000000       0.008
  -0.14444430  0.57222193  0.00000000       0.008
  -0.15555540  0.57777747  0.00000000       0.008
  -0.16666650  0.58333300  0.00000000       0.008
  -0.17777760  0.58888853  0.00000000       0.008
  -0.18888870  0.59444407  0.00000000       0.008
  -0.19999980  0.59999960  0.00000000       0.008
  -0.21111090  0.60555513  0.00000000       0.008
  -0.22222200  0.61111067  0.00000000       0.008
  -0.23333310  0.61666620  0.00000000       0.008
  -0.24444420  0.62222173  0.00000000       0.008
  -0.25555530  0.62777727  0.00000000       0.008
  -0.26666640  0.63333280  0.00000000       0.008
  -0.27777750  0.63888833  0.00000000       0.008
  -0.28888860  0.64444387  0.00000000       0.008
  -0.29999970  0.64999940  0.00000000       0.008
  -0.31111080  0.65555493  0.00000000       0.008
  -0.32222190  0.66111047  0.00000000       0.008
  -0.33333300  0.66666600  0.00000000       0.008
  -0.33333300  0.66666600  0.00000000       0.008
  -0.32222190  0.64444380  0.00000000       0.008
  -0.31111080  0.62222160  0.00000000       0.008
  -0.29999970  0.59999940  0.00000000       0.008
  -0.28888860  0.57777720  0.00000000       0.008
  -0.27777750  0.55555500  0.00000000       0.008
  -0.26666640  0.53333280  0.00000000       0.008
  -0.25555530  0.51111060  0.00000000       0.008
  -0.24444420  0.48888840  0.00000000       0.008
  -0.23333310  0.46666620  0.00000000       0.008
  -0.22222200  0.44444400  0.00000000       0.008
  -0.21111090  0.42222180  0.00000000       0.008
  -0.19999980  0.39999960  0.00000000       0.008
  -0.18888870  0.37777740  0.00000000       0.008
  -0.17777760  0.35555520  0.00000000       0.008
  -0.16666650  0.33333300  0.00000000       0.008
  -0.15555540  0.31111080  0.00000000       0.008
  -0.14444430  0.28888860  0.00000000       0.008
  -0.13333320  0.26666640  0.00000000       0.008
  -0.12222210  0.24444420  0.00000000       0.008
  -0.11111100  0.22222200  0.00000000       0.008
  -0.09999990  0.19999980  0.00000000       0.008
  -0.08888880  0.17777760  0.00000000       0.008
  -0.07777770  0.15555540  0.00000000       0.008
  -0.06666660  0.13333320  0.00000000       0.008
  -0.05555550  0.11111100  0.00000000       0.008
  -0.04444440  0.08888880  0.00000000       0.008
  -0.03333330  0.06666660  0.00000000       0.008
  -0.02222220  0.04444440  0.00000000       0.008
  -0.01111110  0.02222220  0.00000000       0.008
   0.00000000 -0.00000000  0.00000000       0.008
 
 position of ions in fractional coordinates (direct lattice) 
   0.33213517  0.66614382  0.37464602
   0.66547659  0.33281719  0.30971835
   0.66546827  0.33280903  0.43956564
 
 position of ions in cartesian coordinates  (Angst):
  -0.00293506  1.81944392  9.04076752
   1.57397669  0.90903538  7.47396705
   1.57396854  0.90902186 10.60737414
 
 Euler angles ALPHA=     0.0000000  BETA=     0.0000000

 transformation matrix from SAXIS to cartesian coordinates
 ---------------------------------------------------------
     1.0000000 m_x     0.0000000 m_y     0.0000000 m_z
     0.0000000 m_x     1.0000000 m_y     0.0000000 m_z
     0.0000000 m_x     0.0000000 m_y     1.0000000 m_z

 transformation matrix from cartesian coordinates to SAXIS
 ---------------------------------------------------------
     1.0000000 m_x     0.0000000 m_y     0.0000000 m_z
     0.0000000 m_x     1.0000000 m_y     0.0000000 m_z
     0.0000000 m_x     0.0000000 m_y     1.0000000 m_z




--------------------------------------------------------------------------------------------------------


 k-point  1 :   0.0000 0.0000 0.0000  plane waves:   10566
 k-point  2 :   0.0111 0.0111 0.0000  plane waves:   10542
 k-point  3 :   0.0222 0.0222 0.0000  plane waves:   10546
 k-point  4 :   0.0333 0.0333 0.0000  plane waves:   10542
 k-point  5 :   0.0444 0.0444 0.0000  plane waves:   10518
 k-point  6 :   0.0556 0.0556 0.0000  plane waves:   10534
 k-point  7 :   0.0667 0.0667 0.0000  plane waves:   10550
 k-point  8 :   0.0778 0.0778 0.0000  plane waves:   10550
 k-point  9 :   0.0889 0.0889 0.0000  plane waves:   10518
 k-point 10 :   0.1000 0.1000 0.0000  plane waves:   10538
 k-point 11 :   0.1111 0.1111 0.0000  plane waves:   10510
 k-point 12 :   0.1222 0.1222 0.0000  plane waves:   10534
 k-point 13 :   0.1333 0.1333 0.0000  plane waves:   10540
 k-point 14 :   0.1444 0.1444 0.0000  plane waves:   10552
 k-point 15 :   0.1556 0.1556 0.0000  plane waves:   10556
 k-point 16 :   0.1667 0.1667 0.0000  plane waves:   10548
 k-point 17 :   0.1778 0.1778 0.0000  plane waves:   10548
 k-point 18 :   0.1889 0.1889 0.0000  plane waves:   10556
 k-point 19 :   0.2000 0.2000 0.0000  plane waves:   10520
 k-point 20 :   0.2111 0.2111 0.0000  plane waves:   10540
 k-point 21 :   0.2222 0.2222 0.0000  plane waves:   10532
 k-point 22 :   0.2333 0.2333 0.0000  plane waves:   10524
 k-point 23 :   0.2444 0.2444 0.0000  plane waves:   10508
 k-point 24 :   0.2556 0.2556 0.0000  plane waves:   10480
 k-point 25 :   0.2667 0.2667 0.0000  plane waves:   10492
 k-point 26 :   0.2778 0.2778 0.0000  plane waves:   10512
 k-point 27 :   0.2889 0.2889 0.0000  plane waves:   10500
 k-point 28 :   0.3000 0.3000 0.0000  plane waves:   10492
 k-point 29 :   0.3111 0.3111 0.0000  plane waves:   10476
 k-point 30 :   0.3222 0.3222 0.0000  plane waves:   10484
 k-point 31 :   0.3333 0.3333 0.0000  plane waves:   10464
 k-point 32 :   0.3333 0.3333 0.0000  plane waves:   10464
 k-point 33 :   0.3222 0.3389 0.0000  plane waves:   10488
 k-point 34 :   0.3111 0.3444 0.0000  plane waves:   10472
 k-point 35 :   0.3000 0.3500 0.0000  plane waves:   10488
 k-point 36 :   0.2889 0.3556 0.0000  plane waves:   10480
 k-point 37 :   0.2778 0.3611 0.0000  plane waves:   10468
 k-point 38 :   0.2667 0.3667 0.0000  plane waves:   10472
 k-point 39 :   0.2556 0.3722 0.0000  plane waves:   10516
 k-point 40 :   0.2444 0.3778 0.0000  plane waves:   10520
 k-point 41 :   0.2333 0.3833 0.0000  plane waves:   10512
 k-point 42 :   0.2222 0.3889 0.0000  plane waves:   10536
 k-point 43 :   0.2111 0.3944 0.0000  plane waves:   10540
 k-point 44 :   0.2000 0.4000 0.0000  plane waves:   10550
 k-point 45 :   0.1889 0.4056 0.0000  plane waves:   10556
 k-point 46 :   0.1778 0.4111 0.0000  plane waves:   10564
 k-point 47 :   0.1667 0.4167 0.0000  plane waves:   10532
 k-point 48 :   0.1556 0.4222 0.0000  plane waves:   10556
 k-point 49 :   0.1444 0.4278 0.0000  plane waves:   10572
 k-point 50 :   0.1333 0.4333 0.0000  plane waves:   10564
 k-point 51 :   0.1222 0.4389 0.0000  plane waves:   10564
 k-point 52 :   0.1111 0.4444 0.0000  plane waves:   10572
 k-point 53 :   0.1000 0.4500 0.0000  plane waves:   10560
 k-point 54 :   0.0889 0.4556 0.0000  plane waves:   10560
 k-point 55 :   0.0778 0.4611 0.0000  plane waves:   10584
 k-point 56 :   0.0667 0.4667 0.0000  plane waves:   10600
 k-point 57 :   0.0556 0.4722 0.0000  plane waves:   10616
 k-point 58 :   0.0444 0.4778 0.0000  plane waves:   10612
 k-point 59 :   0.0333 0.4833 0.0000  plane waves:   10612
 k-point 60 :   0.0222 0.4889 0.0000  plane waves:   10620
 k-point 61 :   0.0111 0.4944 0.0000  plane waves:   10624
 k-point 62 :  -0.0000 0.5000 0.0000  plane waves:   10616
 k-point 63 :   0.0000 0.5000 0.0000  plane waves:   10616
 k-point 64 :  -0.0111 0.5056 0.0000  plane waves:   10624
 k-point 65 :  -0.0222 0.5111 0.0000  plane waves:   10620
 k-point 66 :  -0.0333 0.5167 0.0000  plane waves:   10612
 k-point 67 :  -0.0444 0.5222 0.0000  plane waves:   10612
 k-point 68 :  -0.0556 0.5278 0.0000  plane waves:   10616
 k-point 69 :  -0.0667 0.5333 0.0000  plane waves:   10600
 k-point 70 :  -0.0778 0.5389 0.0000  plane waves:   10584
 k-point 71 :  -0.0889 0.5444 0.0000  plane waves:   10560
 k-point 72 :  -0.1000 0.5500 0.0000  plane waves:   10560
 k-point 73 :  -0.1111 0.5556 0.0000  plane waves:   10572
 k-point 74 :  -0.1222 0.5611 0.0000  plane waves:   10564
 k-point 75 :  -0.1333 0.5667 0.0000  plane waves:   10564
 k-point 76 :  -0.1444 0.5722 0.0000  plane waves:   10572
 k-point 77 :  -0.1556 0.5778 0.0000  plane waves:   10556
 k-point 78 :  -0.1667 0.5833 0.0000  plane waves:   10532
 k-point 79 :  -0.1778 0.5889 0.0000  plane waves:   10564
 k-point 80 :  -0.1889 0.5944 0.0000  plane waves:   10556
 k-point 81 :  -0.2000 0.6000 0.0000  plane waves:   10550
 k-point 82 :  -0.2111 0.6056 0.0000  plane waves:   10540
 k-point 83 :  -0.2222 0.6111 0.0000  plane waves:   10536
 k-point 84 :  -0.2333 0.6167 0.0000  plane waves:   10512
 k-point 85 :  -0.2444 0.6222 0.0000  plane waves:   10520
 k-point 86 :  -0.2556 0.6278 0.0000  plane waves:   10516
 k-point 87 :  -0.2667 0.6333 0.0000  plane waves:   10472
 k-point 88 :  -0.2778 0.6389 0.0000  plane waves:   10468
 k-point 89 :  -0.2889 0.6444 0.0000  plane waves:   10480
 k-point 90 :  -0.3000 0.6500 0.0000  plane waves:   10488
 k-point 91 :  -0.3111 0.6556 0.0000  plane waves:   10472
 k-point 92 :  -0.3222 0.6611 0.0000  plane waves:   10488
 k-point 93 :  -0.3333 0.6667 0.0000  plane waves:   10464
 k-point 94 :  -0.3333 0.6667 0.0000  plane waves:   10464
 k-point 95 :  -0.3222 0.6444 0.0000  plane waves:   10484
 k-point 96 :  -0.3111 0.6222 0.0000  plane waves:   10476
 k-point 97 :  -0.3000 0.6000 0.0000  plane waves:   10492
 k-point 98 :  -0.2889 0.5778 0.0000  plane waves:   10500
 k-point 99 :  -0.2778 0.5556 0.0000  plane waves:   10512
 k-point ** :  -0.2667 0.5333 0.0000  plane waves:   10492
 k-point ** :  -0.2556 0.5111 0.0000  plane waves:   10480
 k-point ** :  -0.2444 0.4889 0.0000  plane waves:   10508
 k-point ** :  -0.2333 0.4667 0.0000  plane waves:   10524
 k-point ** :  -0.2222 0.4444 0.0000  plane waves:   10532
 k-point ** :  -0.2111 0.4222 0.0000  plane waves:   10540
 k-point ** :  -0.2000 0.4000 0.0000  plane waves:   10520
 k-point ** :  -0.1889 0.3778 0.0000  plane waves:   10556
 k-point ** :  -0.1778 0.3556 0.0000  plane waves:   10548
 k-point ** :  -0.1667 0.3333 0.0000  plane waves:   10548
 k-point ** :  -0.1556 0.3111 0.0000  plane waves:   10556
 k-point ** :  -0.1444 0.2889 0.0000  plane waves:   10552
 k-point ** :  -0.1333 0.2667 0.0000  plane waves:   10540
 k-point ** :  -0.1222 0.2444 0.0000  plane waves:   10534
 k-point ** :  -0.1111 0.2222 0.0000  plane waves:   10510
 k-point ** :  -0.1000 0.2000 0.0000  plane waves:   10538
 k-point ** :  -0.0889 0.1778 0.0000  plane waves:   10518
 k-point ** :  -0.0778 0.1556 0.0000  plane waves:   10550
 k-point ** :  -0.0667 0.1333 0.0000  plane waves:   10550
 k-point ** :  -0.0556 0.1111 0.0000  plane waves:   10534
 k-point ** :  -0.0444 0.0889 0.0000  plane waves:   10518
 k-point ** :  -0.0333 0.0667 0.0000  plane waves:   10542
 k-point ** :  -0.0222 0.0444 0.0000  plane waves:   10546
 k-point ** :  -0.0111 0.0222 0.0000  plane waves:   10542
 k-point ** :   0.0000-0.0000 0.0000  plane waves:   10566

 maximum and minimum number of plane-waves per node :     10624    10464

 maximum number of plane-waves:     10624
 maximum index in each direction: 
   IXMAX=    6   IYMAX=    5   IZMAX=   43
   IXMIN=   -6   IYMIN=   -6   IZMIN=  -43


 serial   3D FFT for wavefunctions
 parallel 3D FFT for charge:
    minimum data exchange during FFTs selected (reduces bandwidth)


 total amount of memory used by VASP MPI-rank0    99551. kBytes
=======================================================================

   base      :      30000. kBytes
   nonlr-proj:       1986. kBytes
   fftplans  :       3151. kBytes
   grid      :      21565. kBytes
   one-center:        186. kBytes
   wavefun   :      42663. kBytes
 
     INWAV:  cpu time    2.4629: real time    2.5027
 initial charge density was supplied:
 number of electron      26.0000001 magnetization       0.0001704      0.0001703      0.0001705
 keeping initial charge density in first step


--------------------------------------------------------------------------------------------------------


 Maximum index for non-local projection operator         7078
 Maximum index for augmentation-charges          923 (set IRDMAX)


--------------------------------------------------------------------------------------------------------


 First call to EWALD:  gamma=   0.299
 Maximum number of real-space cells 5x 5x 1
 Maximum number of reciprocal cells 2x 2x10

    FEWALD:  cpu time    0.0017: real time    0.0017


--------------------------------------- Iteration      1(   1)  ---------------------------------------


    POTLOK:  cpu time    0.1017: real time    0.1098
    SETDIJ:  cpu time    0.0094: real time    0.0094
     EDDAV:  cpu time   19.0755: real time   19.0797
       DOS:  cpu time    0.0014: real time    0.0014
    --------------------------------------------
      LOOP:  cpu time   19.1880: real time   19.2003

 eigenvalue-minimisations  : 17328
 total energy-change (2. order) : 0.8922241E+01  (-0.2401951E+03)
 number of electron      26.0000001 magnetization       0.0001704      0.0001703      0.0001705
 augmentation part       26.0000001 magnetization       0.0001704      0.0001703      0.0001705

 Free energy of the ion-electron system (eV)
  ---------------------------------------------------
  alpha Z        PSCENC =        22.75824259
  Ewald energy   TEWEN  =      8026.98317400
  -Hartree energ DENC   =    -10109.83245795
  -exchange      EXHF   =         0.00000000
  -V(xc)+E(xc)   XCENC  =        90.97149304
  PAW double counting   =      2974.11392139    -2953.12615341
  entropy T*S    EENTRO =        -0.00016249
  eigenvalues    EBANDS =      -458.86713097
  atomic energy  EATOM  =      2415.92131437
  Solvation  Ediel_sol  =         0.00000000
  ---------------------------------------------------
  free energy    TOTEN  =         8.92224058 eV

  energy without entropy =        8.92240307  energy(sigma->0) =        8.92232182


--------------------------------------------------------------------------------------------------------




--------------------------------------- Iteration      1(   2)  ---------------------------------------


     EDDAV:  cpu time   15.6216: real time   15.6251
       DOS:  cpu time    0.0010: real time    0.0010
    --------------------------------------------
      LOOP:  cpu time   15.6226: real time   15.6261

 eigenvalue-minimisations  : 13560
 total energy-change (2. order) :-0.3093251E+02  (-0.2990011E+02)
 number of electron      26.0000001 magnetization       0.0001704      0.0001703      0.0001705
 augmentation part       26.0000001 magnetization       0.0001704      0.0001703      0.0001705

 Free energy of the ion-electron system (eV)
  ---------------------------------------------------
  alpha Z        PSCENC =        22.75824259
  Ewald energy   TEWEN  =      8026.98317400
  -Hartree energ DENC   =    -10109.83245795
  -exchange      EXHF   =         0.00000000
  -V(xc)+E(xc)   XCENC  =        90.97149304
  PAW double counting   =      2974.11392139    -2953.12615341
  entropy T*S    EENTRO =        -0.00000000
  eigenvalues    EBANDS =      -489.79979950
  atomic energy  EATOM  =      2415.92131437
  Solvation  Ediel_sol  =         0.00000000
  ---------------------------------------------------
  free energy    TOTEN  =       -22.01026547 eV

  energy without entropy =      -22.01026547  energy(sigma->0) =      -22.01026547


--------------------------------------------------------------------------------------------------------




--------------------------------------- Iteration      1(   3)  ---------------------------------------


     EDDAV:  cpu time   18.1380: real time   18.1475
       DOS:  cpu time    0.0010: real time    0.0010
    --------------------------------------------
      LOOP:  cpu time   18.1390: real time   18.1485

 eigenvalue-minimisations  : 16176
 total energy-change (2. order) :-0.4825052E+00  (-0.4820693E+00)
 number of electron      26.0000001 magnetization       0.0001704      0.0001703      0.0001705
 augmentation part       26.0000001 magnetization       0.0001704      0.0001703      0.0001705

 Free energy of the ion-electron system (eV)
  ---------------------------------------------------
  alpha Z        PSCENC =        22.75824259
  Ewald energy   TEWEN  =      8026.98317400
  -Hartree energ DENC   =    -10109.83245795
  -exchange      EXHF   =         0.00000000
  -V(xc)+E(xc)   XCENC  =        90.97149304
  PAW double counting   =      2974.11392139    -2953.12615341
  entropy T*S    EENTRO =        -0.00000000
  eigenvalues    EBANDS =      -490.28230466
  atomic energy  EATOM  =      2415.92131437
  Solvation  Ediel_sol  =         0.00000000
  ---------------------------------------------------
  free energy    TOTEN  =       -22.49277063 eV

  energy without entropy =      -22.49277063  energy(sigma->0) =      -22.49277063


--------------------------------------------------------------------------------------------------------




--------------------------------------- Iteration      1(   4)  ---------------------------------------


     EDDAV:  cpu time   18.0227: real time   18.0265
       DOS:  cpu time    0.0010: real time    0.0010
    --------------------------------------------
      LOOP:  cpu time   18.0237: real time   18.0275

 eigenvalue-minimisations  : 16104
 total energy-change (2. order) :-0.5278672E-02  (-0.5278414E-02)
 number of electron      26.0000001 magnetization       0.0001704      0.0001703      0.0001705
 augmentation part       26.0000001 magnetization       0.0001704      0.0001703      0.0001705

 Free energy of the ion-electron system (eV)
  ---------------------------------------------------
  alpha Z        PSCENC =        22.75824259
  Ewald energy   TEWEN  =      8026.98317400
  -Hartree energ DENC   =    -10109.83245795
  -exchange      EXHF   =         0.00000000
  -V(xc)+E(xc)   XCENC  =        90.97149304
  PAW double counting   =      2974.11392139    -2953.12615341
  entropy T*S    EENTRO =        -0.00000000
  eigenvalues    EBANDS =      -490.28758334
  atomic energy  EATOM  =      2415.92131437
  Solvation  Ediel_sol  =         0.00000000
  ---------------------------------------------------
  free energy    TOTEN  =       -22.49804930 eV

  energy without entropy =      -22.49804930  energy(sigma->0) =      -22.49804930


--------------------------------------------------------------------------------------------------------




--------------------------------------- Iteration      1(   5)  ---------------------------------------


     EDDAV:  cpu time   18.3669: real time   18.3727
       DOS:  cpu time    0.0010: real time    0.0010
 


 total charge     
 
# of ion       s       p       d       tot
------------------------------------------
    1        2.268   6.236   3.895  12.398
    2        1.376   2.348   0.000   3.724
    3        1.376   2.348   0.000   3.724
--------------------------------------------------
tot          5.020  10.931   3.895  19.846
 


 magnetization (x)
 
# of ion       s       p       d       tot
------------------------------------------
    1        0.000  -0.000   0.000   0.000
    2        0.000  -0.002   0.000  -0.002
    3       -0.000   0.002   0.000   0.002
--------------------------------------------------
tot         -0.000  -0.000   0.000  -0.000
 


 magnetization (y)
 
# of ion       s       p       d       tot
------------------------------------------
    1       -0.000  -0.000   0.000  -0.000
    2       -0.000   0.000   0.000  -0.000
    3       -0.000  -0.000   0.000  -0.000
--------------------------------------------------
tot         -0.000  -0.000   0.000  -0.000
 


 magnetization (z)
 
# of ion       s       p       d       tot
------------------------------------------
    1       -0.000   0.000   0.000   0.000
    2        0.000  -0.000   0.000  -0.000
    3       -0.000  -0.000   0.000  -0.000
--------------------------------------------------
tot         -0.000  -0.000   0.000  -0.000
 
    --------------------------------------------
      LOOP:  cpu time   18.3820: real time   18.3878

 eigenvalue-minimisations  : 16440
 total energy-change (2. order) :-0.1352859E-03  (-0.1352842E-03)
 number of electron      26.0000001 magnetization       0.0001704      0.0001703      0.0001705
 augmentation part       26.0000001 magnetization       0.0001704      0.0001703      0.0001705

 Free energy of the ion-electron system (eV)
  ---------------------------------------------------
  alpha Z        PSCENC =        22.75824259
  Ewald energy   TEWEN  =      8026.98317400
  -Hartree energ DENC   =    -10109.83245795
  -exchange      EXHF   =         0.00000000
  -V(xc)+E(xc)   XCENC  =        90.97149304
  PAW double counting   =      2974.11392139    -2953.12615341
  entropy T*S    EENTRO =        -0.00000000
  eigenvalues    EBANDS =      -490.28771862
  atomic energy  EATOM  =      2415.92131437
  Solvation  Ediel_sol  =         0.00000000
  ---------------------------------------------------
  free energy    TOTEN  =       -22.49818458 eV

  energy without entropy =      -22.49818458  energy(sigma->0) =      -22.49818458


--------------------------------------------------------------------------------------------------------




--------------------------------------- Iteration      1(   6)  ---------------------------------------


     EDDAV:  cpu time   18.1767: real time   18.1810
       DOS:  cpu time    0.0010: real time    0.0010
    --------------------------------------------
      LOOP:  cpu time   18.1635: real time   18.1678

 eigenvalue-minimisations  : 16248
 total energy-change (2. order) :-0.4797253E-05  (-0.4797442E-05)
 number of electron      26.0000001 magnetization       0.0001704      0.0001703      0.0001705
 augmentation part       26.0000001 magnetization       0.0001704      0.0001703      0.0001705

 Free energy of the ion-electron system (eV)
  ---------------------------------------------------
  alpha Z        PSCENC =        22.75824259
  Ewald energy   TEWEN  =      8026.98317400
  -Hartree energ DENC   =    -10109.83245795
  -exchange      EXHF   =         0.00000000
  -V(xc)+E(xc)   XCENC  =        90.97149304
  PAW double counting   =      2974.11392139    -2953.12615341
  entropy T*S    EENTRO =        -0.00000000
  eigenvalues    EBANDS =      -490.28772342
  atomic energy  EATOM  =      2415.92131437
  Solvation  Ediel_sol  =         0.00000000
  ---------------------------------------------------
  free energy    TOTEN  =       -22.49818938 eV

  energy without entropy =      -22.49818938  energy(sigma->0) =      -22.49818938


--------------------------------------------------------------------------------------------------------




 average (electrostatic) potential at core
  the test charge radii are     1.0818  0.9698
  (the norm of the test charge is              1.0000)
       1 -84.1629       2 -93.9013       3 -93.9013
 
 
 
 E-fermi :  -2.3180     XC(G=0):  -3.2018     alpha+bet : -3.4723


 k-point     1 :       0.0000    0.0000    0.0000
  band No.  band energies     occupation 
      1     -63.4274      1.00000
      2     -63.4274      1.00000
      3     -39.0705      1.00000
      4     -39.0705      1.00000
      5     -36.7147      1.00000
      6     -36.7146      1.00000
      7     -36.5469      1.00000
      8     -36.5469      1.00000
      9     -16.7723      1.00000
     10     -16.7723      1.00000
     11     -15.4660      1.00000
     12     -15.4659      1.00000
     13      -8.2992      1.00000
     14      -8.2992      1.00000
     15      -5.2111      1.00000
     16      -5.2110      1.00000
     17      -5.1452      1.00000
     18      -5.1452      1.00000
     19      -4.4664      1.00000
     20      -4.4664      1.00000
     21      -4.0948      1.00000
     22      -4.0947      1.00000
     23      -4.0094      1.00000
     24      -4.0094      1.00000
     25      -2.6843      1.00000
     26      -2.6843      1.00000
     27       0.1936      0.00000
     28       0.1936      0.00000
     29       0.2730      0.00000
     30       0.2730      0.00000
     31       0.4737      0.00000
     32       0.4737      0.00000
     33       0.4767      0.00000
     34       0.4767      0.00000
     35       2.7437      0.00000
     36       2.7958      0.00000
     37       2.8862      0.00000
     38       2.9440      0.00000
     39       3.3330      0.00000
     40       3.5743      0.00000
     41       3.8452      0.00000
     42       3.8827      0.00000
     43       4.1076      0.00000
     44       4.2583      0.00000
     45       4.7843      0.00000
     46       4.9768      0.00000
     47       5.8387      0.00000
     48       6.0113      0.00000

 k-point     2 :       0.0111    0.0111    0.0000
  band No.  band energies     occupation 
      1     -63.4272      1.00000
      2     -63.4272      1.00000
      3     -39.0709      1.00000
      4     -39.0709      1.00000
      5     -36.7148      1.00000
      6     -36.7148      1.00000
      7     -36.5479      1.00000
      8     -36.5479      1.00000
      9     -16.7665      1.00000
     10     -16.7665      1.00000
     11     -15.4636      1.00000
     12     -15.4636      1.00000
     13      -8.2926      1.00000
     14      -8.2925      1.00000
     15      -5.2164      1.00000
     16      -5.2158      1.00000
     17      -5.1479      1.00000
     18      -5.1473      1.00000
     19      -4.5080      1.00000
     20      -4.5080      1.00000
     21      -4.0867      1.00000
     22      -4.0852      1.00000
     23      -3.9953      1.00000
     24      -3.9938      1.00000
     25      -2.6862      1.00000
     26      -2.6862      1.00000
     27       0.1922      0.00000
     28       0.1939      0.00000
     29       0.2731      0.00000
     30       0.2745      0.00000
     31       0.4550      0.00000
     32       0.4586      0.00000
     33       0.4670      0.00000
     34       0.4706      0.00000
     35       2.7542      0.00000
     36       2.8067      0.00000
     37       2.8936      0.00000
     38       2.9514      0.00000
     39       3.3422      0.00000
     40       3.5851      0.00000
     41       3.8702      0.00000
     42       3.9058      0.00000
     43       4.1149      0.00000
     44       4.2656      0.00000
     45       4.7925      0.00000
     46       4.9847      0.00000
     47       5.8457      0.00000
     48       6.0184      0.00000

 k-point     3 :       0.0222    0.0222    0.0000
  band No.  band energies     occupation 
      1     -63.4268      1.00000
      2     -63.4268      1.00000
      3     -39.0721      1.00000
      4     -39.0721      1.00000
      5     -36.7153      1.00000
      6     -36.7153      1.00000
      7     -36.5510      1.00000
      8     -36.5509      1.00000
      9     -16.7494      1.00000
     10     -16.7493      1.00000
     11     -15.4564      1.00000
     12     -15.4564      1.00000
     13      -8.2726      1.00000
     14      -8.2726      1.00000
     15      -5.2448      1.00000
     16      -5.2414      1.00000
     17      -5.1441      1.00000
     18      -5.1408      1.00000
     19      -4.6065      1.00000
     20      -4.6064      1.00000
     21      -4.1017      1.00000
     22      -4.0963      1.00000
     23      -3.9396      1.00000
     24      -3.9339      1.00000
     25      -2.6923      1.00000
     26      -2.6922      1.00000
     27       0.1760      0.00000
     28       0.1854      0.00000
     29       0.2836      0.00000
     30       0.2906      0.00000
     31       0.4015      0.00000
     32       0.4098      0.00000
     33       0.4460      0.00000
     34       0.4525      0.00000
     35       2.7845      0.00000
     36       2.8383      0.00000
     37       2.9160      0.00000
     38       2.9737      0.00000
     39       3.3690      0.00000
     40       3.6157      0.00000
     41       3.9447      0.00000
     42       3.9760      0.00000
     43       4.1369      0.00000
     44       4.2876      0.00000
     45       4.8172      0.00000
     46       5.0085      0.00000
     47       5.8667      0.00000
     48       6.0393      0.00000

 k-point     4 :       0.0333    0.0333    0.0000
  band No.  band energies     occupation 
      1     -63.4260      1.00000
      2     -63.4260      1.00000
      3     -39.0741      1.00000
      4     -39.0740      1.00000
      5     -36.7162      1.00000
      6     -36.7162      1.00000
      7     -36.5560      1.00000
      8     -36.5558      1.00000
      9     -16.7209      1.00000
     10     -16.7208      1.00000
     11     -15.4445      1.00000
     12     -15.4445      1.00000
     13      -8.2399      1.00000
     14      -8.2398      1.00000
     15      -5.3040      1.00000
     16      -5.2980      1.00000
     17      -5.1223      1.00000
     18      -5.1164      1.00000
     19      -4.7301      1.00000
     20      -4.7296      1.00000
     21      -4.1473      1.00000
     22      -4.1391      1.00000
     23      -3.8631      1.00000
     24      -3.8536      1.00000
     25      -2.7033      1.00000
     26      -2.7032      1.00000
     27       0.1386      0.00000
     28       0.1557      0.00000
     29       0.3006      0.00000
     30       0.3033      0.00000
     31       0.3376      0.00000
     32       0.3601      0.00000
     33       0.4174      0.00000
     34       0.4221      0.00000
     35       2.8322      0.00000
     36       2.8876      0.00000
     37       2.9532      0.00000
     38       3.0108      0.00000
     39       3.4118      0.00000
     40       3.6622      0.00000
     41       4.0663      0.00000
     42       4.0938      0.00000
     43       4.1735      0.00000
     44       4.3241      0.00000
     45       4.8588      0.00000
     46       5.0482      0.00000
     47       5.9017      0.00000
     48       6.0742      0.00000

 k-point     5 :       0.0444    0.0444    0.0000
  band No.  band energies     occupation 
      1     -63.4250      1.00000
      2     -63.4250      1.00000
      3     -39.0769      1.00000
      4     -39.0767      1.00000
      5     -36.7175      1.00000
      6     -36.7174      1.00000
      7     -36.5629      1.00000
      8     -36.5624      1.00000
      9     -16.6815      1.00000
     10     -16.6811      1.00000
     11     -15.4281      1.00000
     12     -15.4280      1.00000
     13      -8.1952      1.00000
     14      -8.1948      1.00000
     15      -5.3881      1.00000
     16      -5.3800      1.00000
     17      -5.0857      1.00000
     18      -5.0788      1.00000
     19      -4.8646      1.00000
     20      -4.8618      1.00000
     21      -4.2160      1.00000
     22      -4.2062      1.00000
     23      -3.7874      1.00000
     24      -3.7741      1.00000
     25      -2.7207      1.00000
     26      -2.7204      1.00000
     27       0.0891      0.00000
     28       0.1097      0.00000
     29       0.2155      0.00000
     30       0.2160      0.00000
     31       0.3505      0.00000
     32       0.3702      0.00000
     33       0.3971      0.00000
     34       0.4337      0.00000
     35       2.8947      0.00000
     36       2.9517      0.00000
     37       3.0050      0.00000
     38       3.0625      0.00000
     39       3.4693      0.00000
     40       3.7222      0.00000
     41       4.2244      0.00000
     42       4.2304      0.00000
     43       4.2564      0.00000
     44       4.3752      0.00000
     45       4.9181      0.00000
     46       5.1042      0.00000
     47       5.9503      0.00000
     48       6.1226      0.00000

 k-point     6 :       0.0556    0.0556    0.0000
  band No.  band energies     occupation 
      1     -63.4237      1.00000
      2     -63.4237      1.00000
      3     -39.0805      1.00000
      4     -39.0801      1.00000
      5     -36.7193      1.00000
      6     -36.7190      1.00000
      7     -36.5714      1.00000
      8     -36.5706      1.00000
      9     -16.6313      1.00000
     10     -16.6307      1.00000
     11     -15.4071      1.00000
     12     -15.4071      1.00000
     13      -8.1394      1.00000
     14      -8.1386      1.00000
     15      -5.4913      1.00000
     16      -5.4815      1.00000
     17      -5.0466      1.00000
     18      -5.0387      1.00000
     19      -5.0022      1.00000
     20      -4.9807      1.00000
     21      -4.3062      1.00000
     22      -4.2957      1.00000
     23      -3.7199      1.00000
     24      -3.7027      1.00000
     25      -2.7465      1.00000
     26      -2.7456      1.00000
     27       0.0360      0.00000
     28       0.0496      0.00000
     29       0.1044      0.00000
     30       0.1161      0.00000
     31       0.2990      0.00000
     32       0.3229      0.00000
     33       0.4722      0.00000
     34       0.5139      0.00000
     35       2.9702      0.00000
     36       3.0285      0.00000
     37       3.0713      0.00000
     38       3.1285      0.00000
     39       3.5406      0.00000
     40       3.7949      0.00000
     41       4.2899      0.00000
     42       4.4282      0.00000
     43       4.4408      0.00000
     44       4.4570      0.00000
     45       4.9978      0.00000
     46       5.1776      0.00000
     47       6.0124      0.00000
     48       6.1842      0.00000

 k-point     7 :       0.0667    0.0667    0.0000
  band No.  band energies     occupation 
      1     -63.4221      1.00000
      2     -63.4221      1.00000
      3     -39.0848      1.00000
      4     -39.0841      1.00000
      5     -36.7216      1.00000
      6     -36.7211      1.00000
      7     -36.5814      1.00000
      8     -36.5800      1.00000
      9     -16.5709      1.00000
     10     -16.5698      1.00000
     11     -15.3819      1.00000
     12     -15.3818      1.00000
     13      -8.0739      1.00000
     14      -8.0725      1.00000
     15      -5.6087      1.00000
     16      -5.5977      1.00000
     17      -5.1486      1.00000
     18      -5.1437      1.00000
     19      -4.9784      1.00000
     20      -4.9555      1.00000
     21      -4.4171      1.00000
     22      -4.4070      1.00000
     23      -3.6634      1.00000
     24      -3.6423      1.00000
     25      -2.7825      1.00000
     26      -2.7807      1.00000
     27      -0.0399      0.00000
     28      -0.0193      0.00000
     29      -0.0066      0.00000
     30       0.0445      0.00000
     31       0.2353      0.00000
     32       0.2613      0.00000
     33       0.5695      0.00000
     34       0.6144      0.00000
     35       3.0576      0.00000
     36       3.1167      0.00000
     37       3.1518      0.00000
     38       3.2087      0.00000
     39       3.6255      0.00000
     40       3.8805      0.00000
     41       4.3696      0.00000
     42       4.5203      0.00000
     43       4.6471      0.00000
     44       4.6860      0.00000
     45       5.1041      0.00000
     46       5.2710      0.00000
     47       6.0875      0.00000
     48       6.2587      0.00000

 k-point     8 :       0.0778    0.0778    0.0000
  band No.  band energies     occupation 
      1     -63.4203      1.00000
      2     -63.4203      1.00000
      3     -39.0898      1.00000
      4     -39.0888      1.00000
      5     -36.7246      1.00000
      6     -36.7238      1.00000
      7     -36.5925      1.00000
      8     -36.5903      1.00000
      9     -16.5008      1.00000
     10     -16.4990      1.00000
     11     -15.3525      1.00000
     12     -15.3524      1.00000
     13      -8.0007      1.00000
     14      -7.9984      1.00000
     15      -5.7356      1.00000
     16      -5.7239      1.00000
     17      -5.2818      1.00000
     18      -5.2809      1.00000
     19      -4.9125      1.00000
     20      -4.8882      1.00000
     21      -4.5475      1.00000
     22      -4.5389      1.00000
     23      -3.6188      1.00000
     24      -3.5940      1.00000
     25      -2.8308      1.00000
     26      -2.8271      1.00000
     27      -0.1456      0.00000
     28      -0.1288      0.00000
     29      -0.0530      0.00000
     30       0.0003      0.00000
     31       0.1661      0.00000
     32       0.1939      0.00000
     33       0.6801      0.00000
     34       0.7277      0.00000
     35       3.1568      0.00000
     36       3.2161      0.00000
     37       3.2463      0.00000
     38       3.3028      0.00000
     39       3.7238      0.00000
     40       3.9793      0.00000
     41       4.4634      0.00000
     42       4.6142      0.00000
     43       4.8654      0.00000
     44       4.9291      0.00000
     45       5.2508      0.00000
     46       5.3910      0.00000
     47       6.1751      0.00000
     48       6.3454      0.00000

 k-point     9 :       0.0889    0.0889    0.0000
  band No.  band energies     occupation 
      1     -63.4183      1.00000
      2     -63.4183      1.00000
      3     -39.0955      1.00000
      4     -39.0940      1.00000
      5     -36.7282      1.00000
      6     -36.7272      1.00000
      7     -36.6045      1.00000
      8     -36.6013      1.00000
      9     -16.4215      1.00000
     10     -16.4189      1.00000
     11     -15.3193      1.00000
     12     -15.3191      1.00000
     13      -7.9221      1.00000
     14      -7.9184      1.00000
     15      -5.8670      1.00000
     16      -5.8552      1.00000
     17      -5.4144      1.00000
     18      -5.4126      1.00000
     19      -4.8414      1.00000
     20      -4.8130      1.00000
     21      -4.6951      1.00000
     22      -4.6894      1.00000
     23      -3.5863      1.00000
     24      -3.5584      1.00000
     25      -2.8925      1.00000
     26      -2.8859      1.00000
     27      -0.2471      0.00000
     28      -0.2370      0.00000
     29      -0.0818      0.00000
     30      -0.0293      0.00000
     31       0.0961      0.00000
     32       0.1255      0.00000
     33       0.8002      0.00000
     34       0.8498      0.00000
     35       3.2675      0.00000
     36       3.3264      0.00000
     37       3.3545      0.00000
     38       3.4104      0.00000
     39       3.8357      0.00000
     40       4.0916      0.00000
     41       4.5710      0.00000
     42       4.7219      0.00000
     43       5.0588      0.00000
     44       5.1647      0.00000
     45       5.4551      0.00000
     46       5.5517      0.00000
     47       6.2744      0.00000
     48       6.4433      0.00000

 k-point    10 :       0.1000    0.1000    0.0000
  band No.  band energies     occupation 
      1     -63.4161      1.00000
      2     -63.4161      1.00000
      3     -39.1017      1.00000
      4     -39.0996      1.00000
      5     -36.7327      1.00000
      6     -36.7314      1.00000
      7     -36.6169      1.00000
      8     -36.6127      1.00000
      9     -16.3338      1.00000
     10     -16.3301      1.00000
     11     -15.2826      1.00000
     12     -15.2823      1.00000
     13      -7.8411      1.00000
     14      -7.8357      1.00000
     15      -5.9977      1.00000
     16      -5.9867      1.00000
     17      -5.5430      1.00000
     18      -5.5385      1.00000
     19      -4.8631      1.00000
     20      -4.8574      1.00000
     21      -4.7620      1.00000
     22      -4.7323      1.00000
     23      -3.5660      1.00000
     24      -3.5353      1.00000
     25      -2.9676      1.00000
     26      -2.9567      1.00000
     27      -0.3385      0.00000
     28      -0.3367      0.00000
     29      -0.0965      0.00000
     30      -0.0479      0.00000
     31       0.0311      0.00000
     32       0.0632      0.00000
     33       0.9266      0.00000
     34       0.9773      0.00000
     35       3.3897      0.00000
     36       3.4476      0.00000
     37       3.4761      0.00000
     38       3.5313      0.00000
     39       3.9613      0.00000
     40       4.2175      0.00000
     41       4.6922      0.00000
     42       4.8432      0.00000
     43       5.2242      0.00000
     44       5.3699      0.00000
     45       5.7119      0.00000
     46       5.7683      0.00000
     47       6.3842      0.00000
     48       6.5510      0.00000

 k-point    11 :       0.1111    0.1111    0.0000
  band No.  band energies     occupation 
      1     -63.4138      1.00000
      2     -63.4137      1.00000
      3     -39.1085      1.00000
      4     -39.1057      1.00000
      5     -36.7380      1.00000
      6     -36.7366      1.00000
      7     -36.6294      1.00000
      8     -36.6239      1.00000
      9     -16.2384      1.00000
     10     -16.2333      1.00000
     11     -15.2426      1.00000
     12     -15.2422      1.00000
     13      -7.7620      1.00000
     14      -7.7542      1.00000
     15      -6.1220      1.00000
     16      -6.1128      1.00000
     17      -5.6665      1.00000
     18      -5.6587      1.00000
     19      -5.0362      1.00000
     20      -5.0361      1.00000
     21      -4.6901      1.00000
     22      -4.6531      1.00000
     23      -3.5575      1.00000
     24      -3.5245      1.00000
     25      -3.0542      1.00000
     26      -3.0371      1.00000
     27      -0.4271      0.00000
     28      -0.4183      0.00000
     29      -0.0976      0.00000
     30      -0.0628      0.00000
     31      -0.0220      0.00000
     32       0.0199      0.00000
     33       1.0558      0.00000
     34       1.1068      0.00000
     35       3.5232      0.00000
     36       3.5796      0.00000
     37       3.6106      0.00000
     38       3.6649      0.00000
     39       4.1006      0.00000
     40       4.3573      0.00000
     41       4.8266      0.00000
     42       4.9778      0.00000
     43       5.3780      0.00000
     44       5.5455      0.00000
     45       5.9956      0.00000
     46       6.0310      0.00000
     47       6.5028      0.00000
     48       6.6663      0.00000

 k-point    12 :       0.1222    0.1222    0.0000
  band No.  band energies     occupation 
      1     -63.4113      1.00000
      2     -63.4113      1.00000
      3     -39.1157      1.00000
      4     -39.1121      1.00000
      5     -36.7443      1.00000
      6     -36.7429      1.00000
      7     -36.6415      1.00000
      8     -36.6349      1.00000
      9     -16.1363      1.00000
     10     -16.1295      1.00000
     11     -15.1998      1.00000
     12     -15.1992      1.00000
     13      -7.6898      1.00000
     14      -7.6789      1.00000
     15      -6.2337      1.00000
     16      -6.2274      1.00000
     17      -5.7859      1.00000
     18      -5.7740      1.00000
     19      -5.2222      1.00000
     20      -5.2167      1.00000
     21      -4.6234      1.00000
     22      -4.5791      1.00000
     23      -3.5606      1.00000
     24      -3.5259      1.00000
     25      -3.1479      1.00000
     26      -3.1227      1.00000
     27      -0.5088      0.00000
     28      -0.4876      0.00000
     29      -0.0924      0.00000
     30      -0.0844      0.00000
     31      -0.0511      0.00000
     32       0.0113      0.00000
     33       1.1846      0.00000
     34       1.2350      0.00000
     35       3.6680      0.00000
     36       3.7222      0.00000
     37       3.7577      0.00000
     38       3.8107      0.00000
     39       4.2536      0.00000
     40       4.5109      0.00000
     41       4.9740      0.00000
     42       5.1254      0.00000
     43       5.5321      0.00000
     44       5.7092      0.00000
     45       6.2788      0.00000
     46       6.3081      0.00000
     47       6.6272      0.00000
     48       6.7849      0.00000

 k-point    13 :       0.1333    0.1333    0.0000
  band No.  band energies     occupation 
      1     -63.4088      1.00000
      2     -63.4088      1.00000
      3     -39.1232      1.00000
      4     -39.1187      1.00000
      5     -36.7515      1.00000
      6     -36.7506      1.00000
      7     -36.6528      1.00000
      8     -36.6453      1.00000
      9     -16.0283      1.00000
     10     -16.0196      1.00000
     11     -15.1544      1.00000
     12     -15.1537      1.00000
     13      -7.6311      1.00000
     14      -7.6163      1.00000
     15      -6.3257      1.00000
     16      -6.3233      1.00000
     17      -5.9045      1.00000
     18      -5.8872      1.00000
     19      -5.4079      1.00000
     20      -5.3957      1.00000
     21      -4.5707      1.00000
     22      -4.5177      1.00000
     23      -3.5753      1.00000
     24      -3.5391      1.00000
     25      -3.2421      1.00000
     26      -3.2064      1.00000
     27      -0.5810      0.00000
     28      -0.5468      0.00000
     29      -0.1036      0.00000
     30      -0.0982      0.00000
     31      -0.0370      0.00000
     32       0.0311      0.00000
     33       1.3098      0.00000
     34       1.3586      0.00000
     35       3.8235      0.00000
     36       3.8751      0.00000
     37       3.9166      0.00000
     38       3.9681      0.00000
     39       4.4205      0.00000
     40       4.6785      0.00000
     41       5.1337      0.00000
     42       5.2853      0.00000
     43       5.6919      0.00000
     44       5.8725      0.00000
     45       6.5188      0.00000
     46       6.5532      0.00000
     47       6.7516      0.00000
     48       6.8981      0.00000

 k-point    14 :       0.1444    0.1444    0.0000
  band No.  band energies     occupation 
      1     -63.4062      1.00000
      2     -63.4062      1.00000
      3     -39.1311      1.00000
      4     -39.1254      1.00000
      5     -36.7596      1.00000
      6     -36.7595      1.00000
      7     -36.6631      1.00000
      8     -36.6550      1.00000
      9     -15.9155      1.00000
     10     -15.9046      1.00000
     11     -15.1070      1.00000
[...]
  0.000   0.000   0.000   0.000   0.000   0.000   0.000   0.000   0.000   0.000   0.000   0.000   0.000   0.000   0.000   0.000
  0.000   0.000   0.000   0.000   0.000   0.000   0.000   0.000   0.000   0.000   0.000   0.000   0.000   0.000   0.000   0.000
 total augmentation occupancy for first ion, spin component:           2
  0.143   0.000   0.000   0.000   0.000   0.000   0.000   0.000   0.000   0.000   0.000   0.000   0.000   0.000   0.000   0.000
  0.000   0.071   0.000   0.000   0.000   0.000   0.000   0.000   0.000   0.000   0.000   0.000   0.000   0.000   0.000   0.000
  0.000   0.000   0.143   0.000   0.000   0.000   0.000   0.000   0.000   0.000   0.000   0.000   0.000   0.000   0.000   0.000
  0.000   0.000   0.000   0.143   0.000   0.000   0.000   0.000   0.000   0.000   0.000   0.000   0.000   0.000   0.000   0.000
  0.000   0.000   0.000   0.000   0.143   0.000   0.000   0.000   0.000   0.000   0.000   0.000   0.000   0.000   0.000   0.000
  0.000   0.000   0.000   0.000   0.000   0.000   0.000   0.000   0.000   0.000   0.000   0.000   0.000   0.000   0.000   0.000
  0.000   0.000   0.000   0.000   0.000   0.000   0.000   0.000   0.000   0.000   0.000   0.000   0.000   0.000   0.000   0.000
  0.000   0.000   0.000   0.000   0.000   0.000   0.000   0.000   0.000   0.000   0.000   0.000   0.000   0.000   0.000   0.000
  0.000   0.000   0.000   0.000   0.000   0.000   0.000   0.000   0.071   0.000   0.000   0.000   0.000   0.000   0.000   0.000
  0.000   0.000   0.000   0.000   0.000   0.000   0.000   0.000   0.000   0.071   0.000   0.000   0.000   0.000   0.000   0.000
  0.000   0.000   0.000   0.000   0.000   0.000   0.000   0.000   0.000   0.000   0.071   0.000   0.000   0.000   0.000   0.000
  0.000   0.000   0.000   0.000   0.000   0.000   0.000   0.000   0.000   0.000   0.000   0.071   0.000   0.000   0.000   0.000
  0.000   0.000   0.000   0.000   0.000   0.000   0.000   0.000   0.000   0.000   0.000   0.000   0.071   0.000   0.000   0.000
  0.000   0.000   0.000   0.000   0.000   0.000   0.000   0.000   0.000   0.000   0.000   0.000   0.000   0.000   0.000   0.000
  0.000   0.000   0.000   0.000   0.000   0.000   0.000   0.000   0.000   0.000   0.000   0.000   0.000   0.000   0.000   0.000
  0.000   0.000   0.000   0.000   0.000   0.000   0.000   0.000   0.000   0.000   0.000   0.000   0.000   0.000   0.000   0.000
  0.000   0.000   0.000   0.000   0.000   0.000   0.000   0.000   0.000   0.000   0.000   0.000   0.000   0.000   0.000   0.000
  0.000   0.000   0.000   0.000   0.000   0.000   0.000   0.000   0.000   0.000   0.000   0.000   0.000   0.000   0.000   0.000
 total augmentation occupancy for first ion, spin component:           3
  0.143   0.000   0.000   0.000   0.000   0.000   0.000   0.000   0.000   0.000   0.000   0.000   0.000   0.000   0.000   0.000
  0.000   0.071   0.000   0.000   0.000   0.000   0.000   0.000   0.000   0.000   0.000   0.000   0.000   0.000   0.000   0.000
  0.000   0.000   0.143   0.000   0.000   0.000   0.000   0.000   0.000   0.000   0.000   0.000   0.000   0.000   0.000   0.000
  0.000   0.000   0.000   0.143   0.000   0.000   0.000   0.000   0.000   0.000   0.000   0.000   0.000   0.000   0.000   0.000
  0.000   0.000   0.000   0.000   0.143   0.000   0.000   0.000   0.000   0.000   0.000   0.000   0.000   0.000   0.000   0.000
  0.000   0.000   0.000   0.000   0.000   0.000   0.000   0.000   0.000   0.000   0.000   0.000   0.000   0.000   0.000   0.000
  0.000   0.000   0.000   0.000   0.000   0.000   0.000   0.000   0.000   0.000   0.000   0.000   0.000   0.000   0.000   0.000
  0.000   0.000   0.000   0.000   0.000   0.000   0.000   0.000   0.000   0.000   0.000   0.000   0.000   0.000   0.000   0.000
  0.000   0.000   0.000   0.000   0.000   0.000   0.000   0.000   0.071   0.000   0.000   0.000   0.000   0.000   0.000   0.000
  0.000   0.000   0.000   0.000   0.000   0.000   0.000   0.000   0.000   0.071   0.000   0.000   0.000   0.000   0.000   0.000
  0.000   0.000   0.000   0.000   0.000   0.000   0.000   0.000   0.000   0.000   0.071   0.000   0.000   0.000   0.000   0.000
  0.000   0.000   0.000   0.000   0.000   0.000   0.000   0.000   0.000   0.000   0.000   0.071   0.000   0.000   0.000   0.000
  0.000   0.000   0.000   0.000   0.000   0.000   0.000   0.000   0.000   0.000   0.000   0.000   0.071   0.000   0.000   0.000
  0.000   0.000   0.000   0.000   0.000   0.000   0.000   0.000   0.000   0.000   0.000   0.000   0.000   0.000   0.000   0.000
  0.000   0.000   0.000   0.000   0.000   0.000   0.000   0.000   0.000   0.000   0.000   0.000   0.000   0.000   0.000   0.000
  0.000   0.000   0.000   0.000   0.000   0.000   0.000   0.000   0.000   0.000   0.000   0.000   0.000   0.000   0.000   0.000
  0.000   0.000   0.000   0.000   0.000   0.000   0.000   0.000   0.000   0.000   0.000   0.000   0.000   0.000   0.000   0.000
  0.000   0.000   0.000   0.000   0.000   0.000   0.000   0.000   0.000   0.000   0.000   0.000   0.000   0.000   0.000   0.000
 total augmentation occupancy for first ion, spin component:           4
  0.143   0.000   0.000   0.000   0.000   0.000   0.000   0.000   0.000   0.000   0.000   0.000   0.000   0.000   0.000   0.000
  0.000   0.071   0.000   0.000   0.000   0.000   0.000   0.000   0.000   0.000   0.000   0.000   0.000   0.000   0.000   0.000
  0.000   0.000   0.143   0.000   0.000   0.000   0.000   0.000   0.000   0.000   0.000   0.000   0.000   0.000   0.000   0.000
  0.000   0.000   0.000   0.143   0.000   0.000   0.000   0.000   0.000   0.000   0.000   0.000   0.000   0.000   0.000   0.000
  0.000   0.000   0.000   0.000   0.143   0.000   0.000   0.000   0.000   0.000   0.000   0.000   0.000   0.000   0.000   0.000
  0.000   0.000   0.000   0.000   0.000   0.000   0.000   0.000   0.000   0.000   0.000   0.000   0.000   0.000   0.000   0.000
  0.000   0.000   0.000   0.000   0.000   0.000   0.000   0.000   0.000   0.000   0.000   0.000   0.000   0.000   0.000   0.000
  0.000   0.000   0.000   0.000   0.000   0.000   0.000   0.000   0.000   0.000   0.000   0.000   0.000   0.000   0.000   0.000
  0.000   0.000   0.000   0.000   0.000   0.000   0.000   0.000   0.071   0.000   0.000   0.000   0.000   0.000   0.000   0.000
  0.000   0.000   0.000   0.000   0.000   0.000   0.000   0.000   0.000   0.071   0.000   0.000   0.000   0.000   0.000   0.000
  0.000   0.000   0.000   0.000   0.000   0.000   0.000   0.000   0.000   0.000   0.071   0.000   0.000   0.000   0.000   0.000
  0.000   0.000   0.000   0.000   0.000   0.000   0.000   0.000   0.000   0.000   0.000   0.071   0.000   0.000   0.000   0.000
  0.000   0.000   0.000   0.000   0.000   0.000   0.000   0.000   0.000   0.000   0.000   0.000   0.071   0.000   0.000   0.000
  0.000   0.000   0.000   0.000   0.000   0.000   0.000   0.000   0.000   0.000   0.000   0.000   0.000   0.000   0.000   0.000
  0.000   0.000   0.000   0.000   0.000   0.000   0.000   0.000   0.000   0.000   0.000   0.000   0.000   0.000   0.000   0.000
  0.000   0.000   0.000   0.000   0.000   0.000   0.000   0.000   0.000   0.000   0.000   0.000   0.000   0.000   0.000   0.000
  0.000   0.000   0.000   0.000   0.000   0.000   0.000   0.000   0.000   0.000   0.000   0.000   0.000   0.000   0.000   0.000
  0.000   0.000   0.000   0.000   0.000   0.000   0.000   0.000   0.000   0.000   0.000   0.000   0.000   0.000   0.000   0.000


------------------------ aborting loop because EDIFF is reached ----------------------------------------


 


 total charge     
 
# of ion       s       p       d       tot
------------------------------------------
    1        2.268   6.236   3.895  12.398
    2        1.376   2.348   0.000   3.724
    3        1.376   2.348   0.000   3.724
--------------------------------------------------
tot          5.020  10.931   3.895  19.846
 


 magnetization (x)
 
# of ion       s       p       d       tot
------------------------------------------
    1        0.000  -0.000   0.000   0.000
    2        0.000  -0.002   0.000  -0.002
    3       -0.000   0.002   0.000   0.002
--------------------------------------------------
tot         -0.000  -0.000   0.000  -0.000
 


 magnetization (y)
 
# of ion       s       p       d       tot
------------------------------------------
    1       -0.000  -0.000   0.000  -0.000
    2       -0.000   0.000   0.000   0.000
    3       -0.000  -0.000   0.000  -0.000
--------------------------------------------------
tot         -0.000  -0.000   0.000  -0.000
 


 magnetization (z)
 
# of ion       s       p       d       tot
------------------------------------------
    1        0.000   0.000   0.000   0.000
    2        0.000  -0.000   0.000  -0.000
    3       -0.000  -0.000   0.000  -0.000
--------------------------------------------------
tot         -0.000  -0.000   0.000  -0.000
 
    CHARGE:  cpu time    1.1407: real time    1.1409
    FORLOC:  cpu time    0.0024: real time    0.0024
    FORNL :  cpu time    3.3017: real time    3.3023
    STRESS:  cpu time    9.9104: real time    9.9121
    FORCOR:  cpu time    0.0701: real time    0.0701
    FORHAR:  cpu time    0.0086: real time    0.0086
    OFIELD:  cpu time    0.0012: real time    0.0012

 ---------------------------------------------------------------------------------------------

         DFTD3 V3.0 Rev 1        
 IVDW         = 12
 DF pbe       
 parameters
 VDW_S6       =    1.0000
 VDW_S8       =    0.7875
 VDW_A1       =    0.4289
 VDW_A2       =    4.4407
 k1-k3        =   16.0000    1.3333   -4.0000
 VDW_RADIUS   =   50.2022 A
 VDW_CNRADIUS =   21.1671 A
 Edisp (eV)   -0.95808

 E6    (eV) :    -0.5435
 E8    (eV) :    -0.4146
 % E8        : 43.27
    FORVDW:  cpu time    0.0126: real time    0.0140

  FORCE on cell =-STRESS in cart. coord.  units (eV):
  Direction    XX          YY          ZZ          XY          YZ          ZX
  --------------------------------------------------------------------------------------
  Alpha Z    22.75824    22.75824    22.75824
  Ewald    9442.30758  9442.30436-10857.62891     0.00149     0.05728     0.03412
  Hartree  9854.91396  9839.37931 -9607.85793     0.00039     0.05414     0.03256
  E(xc)    -109.82782  -109.73180  -110.00958     0.00000     0.00000     0.00000
  Local  -19758.69020-19714.28231 20014.30939    -0.00197    -0.11025    -0.06675
  n-local   122.64655   116.13179   126.62803    -0.00079    -0.00003    -0.00017
  augment    -0.21756    -0.87741    -3.11275    -0.00002    -0.00011     0.00001
  Kinetic   421.76826   405.69675   416.11840    -0.00038    -0.00004     0.00002
  Fock        0.00000     0.00000     0.00000     0.00000     0.00000     0.00000
  vdW        -0.99748    -0.99748    -0.32966    -0.00000    -0.00000    -0.00000
  -------------------------------------------------------------------------------------
  Total      -5.33846     0.38147     0.87524    -0.00126     0.00099    -0.00020
  in kB     -41.14753     2.94024     6.74610    -0.00974     0.00762    -0.00157
  external pressure =      -10.49 kB  Pullay stress =        0.00 kB


 VOLUME and BASIS-vectors are now :
 -----------------------------------------------------------------------------
  energy-cutoff  :      500.00
  volume of cell :      207.87
      direct lattice vectors                 reciprocal lattice vectors
     3.153803002  0.000001722  0.000005255     0.317077409  0.183064302 -0.000001042
    -1.576895282  2.731269097  0.000005016    -0.000000200  0.366130048 -0.000001025
     0.000040249  0.000067590 24.131478925    -0.000000069 -0.000000116  0.041439648

  length of vectors
     3.153803002  3.153796063 24.131478925     0.366129242  0.366130048  0.041439648


 FORCES acting on ions
    electron-ion (+dipol)            ewald-force                    non-local-force                 convergence-correction
 -----------------------------------------------------------------------------------------------
   -.199E-02 -.973E+00 -.197E-01   0.340E-03 0.609E-03 0.120E-01   -.382E-03 0.129E+00 -.252E-02   0.240E-02 0.418E+00 0.678E-02
   -.166E-02 0.126E+01 0.975E+03   0.138E-02 0.230E-02 -.985E+03   -.148E-02 -.668E-01 0.570E+01   -.120E-03 -.894E+00 0.410E+01
   0.695E-03 0.127E+01 -.975E+03   -.172E-02 -.291E-02 0.985E+03   -.263E-03 -.673E-01 -.570E+01   0.176E-03 -.894E+00 -.409E+01
 -----------------------------------------------------------------------------------------------
   -.296E-02 0.156E+01 -.866E-02   -.349E-14 -.295E-14 0.114E-12   -.213E-02 -.534E-02 -.555E-03   0.246E-02 -.137E+01 0.899E-02
 
 
 POSITION                                       TOTAL-FORCE (eV/Angst)
 -----------------------------------------------------------------------------------
     -0.00294      1.81944      9.04077         0.001243     -0.485859     -0.003362
      1.57398      0.90904      7.47397        -0.001011      0.242900     -0.954151
      1.57397      0.90902     10.60737        -0.000233      0.242959      0.957513
 -----------------------------------------------------------------------------------
    total drift:                               -0.002635      0.180897     -0.000218


--------------------------------------------------------------------------------------------------------



  FREE ENERGIE OF THE ION-ELECTRON SYSTEM (eV)
  ---------------------------------------------------
  free  energy   TOTEN  =       -23.45626837 eV

  energy  without entropy=      -23.45626837  energy(sigma->0) =      -23.45626837
 


--------------------------------------------------------------------------------------------------------


    POTLOK:  cpu time    0.0954: real time    0.0954


--------------------------------------------------------------------------------------------------------


 writing wavefunctions
     LOOP+:  cpu time  127.3296: real time  135.5959
    4ORBIT:  cpu time    0.0000: real time    0.0000

 Spin-Orbit-Coupling matrix elements

 Ion:    1  E_soc:     -0.1915840
 l=   1
     0.0000000    -0.0294930    -0.0296556
    -0.0294930     0.0000000    -0.0293392
    -0.0296556    -0.0293392     0.0000000
 l=   2
     0.0000000    -0.0004247     0.0000000    -0.0005104    -0.0021527
    -0.0004247     0.0000000    -0.0013774    -0.0003708    -0.0003713
     0.0000000    -0.0013774     0.0000000    -0.0014923     0.0000000
    -0.0005104    -0.0003708    -0.0014923     0.0000000    -0.0006045
    -0.0021527    -0.0003713     0.0000000    -0.0006045     0.0000000
 l=   3
     0.0000000     0.0000000     0.0000000     0.0000000     0.0000000     0.0000000     0.0000000
     0.0000000     0.0000000     0.0000000     0.0000000     0.0000000     0.0000000     0.0000000
     0.0000000     0.0000000     0.0000000     0.0000000     0.0000000     0.0000000     0.0000000
     0.0000000     0.0000000     0.0000000     0.0000000     0.0000000     0.0000000     0.0000000
     0.0000000     0.0000000     0.0000000     0.0000000     0.0000000     0.0000000     0.0000000
     0.0000000     0.0000000     0.0000000     0.0000000     0.0000000     0.0000000     0.0000000
     0.0000000     0.0000000     0.0000000     0.0000000     0.0000000     0.0000000     0.0000000

 Ion:    2  E_soc:     -0.0021163
 l=   1
     0.0000000    -0.0003957    -0.0003719
    -0.0003957     0.0000000    -0.0002906
    -0.0003719    -0.0002906     0.0000000
 l=   2
     0.0000000     0.0000000     0.0000000     0.0000000     0.0000000
     0.0000000     0.0000000     0.0000000     0.0000000     0.0000000
     0.0000000     0.0000000     0.0000000     0.0000000     0.0000000
     0.0000000     0.0000000     0.0000000     0.0000000     0.0000000
     0.0000000     0.0000000     0.0000000     0.0000000     0.0000000
 l=   3
     0.0000000     0.0000000     0.0000000     0.0000000     0.0000000     0.0000000     0.0000000
     0.0000000     0.0000000     0.0000000     0.0000000     0.0000000     0.0000000     0.0000000
     0.0000000     0.0000000     0.0000000     0.0000000     0.0000000     0.0000000     0.0000000
     0.0000000     0.0000000     0.0000000     0.0000000     0.0000000     0.0000000     0.0000000
     0.0000000     0.0000000     0.0000000     0.0000000     0.0000000     0.0000000     0.0000000
     0.0000000     0.0000000     0.0000000     0.0000000     0.0000000     0.0000000     0.0000000
     0.0000000     0.0000000     0.0000000     0.0000000     0.0000000     0.0000000     0.0000000

 Ion:    3  E_soc:     -0.0021164
 l=   1
     0.0000000    -0.0003957    -0.0003719
    -0.0003957     0.0000000    -0.0002906
    -0.0003719    -0.0002906     0.0000000
 l=   2
     0.0000000     0.0000000     0.0000000     0.0000000     0.0000000
     0.0000000     0.0000000     0.0000000     0.0000000     0.0000000
     0.0000000     0.0000000     0.0000000     0.0000000     0.0000000
     0.0000000     0.0000000     0.0000000     0.0000000     0.0000000
     0.0000000     0.0000000     0.0000000     0.0000000     0.0000000
 l=   3
     0.0000000     0.0000000     0.0000000     0.0000000     0.0000000     0.0000000     0.0000000
     0.0000000     0.0000000     0.0000000     0.0000000     0.0000000     0.0000000     0.0000000
     0.0000000     0.0000000     0.0000000     0.0000000     0.0000000     0.0000000     0.0000000
     0.0000000     0.0000000     0.0000000     0.0000000     0.0000000     0.0000000     0.0000000
     0.0000000     0.0000000     0.0000000     0.0000000     0.0000000     0.0000000     0.0000000
     0.0000000     0.0000000     0.0000000     0.0000000     0.0000000     0.0000000     0.0000000
     0.0000000     0.0000000     0.0000000     0.0000000     0.0000000     0.0000000     0.0000000
 


 total charge     
 
# of ion       s       p       d       tot
------------------------------------------
    1        2.268   6.236   3.895  12.398
    2        1.376   2.348   0.000   3.724
    3        1.376   2.348   0.000   3.724
--------------------------------------------------
tot          5.020  10.931   3.895  19.846
 


 magnetization (x)
 
# of ion       s       p       d       tot
------------------------------------------
    1        0.000  -0.000   0.000   0.000
    2        0.000  -0.002   0.000  -0.002
    3       -0.000   0.002   0.000   0.002
--------------------------------------------------
tot         -0.000  -0.000   0.000  -0.000
 


 magnetization (y)
 
# of ion       s       p       d       tot
------------------------------------------
    1       -0.000  -0.000   0.000  -0.000
    2       -0.000   0.000   0.000   0.000
    3       -0.000  -0.000   0.000  -0.000
--------------------------------------------------
tot         -0.000  -0.000   0.000  -0.000
 


 magnetization (z)
 
# of ion       s       p       d       tot
------------------------------------------
    1        0.000   0.000   0.000   0.000
    2        0.000  -0.000   0.000  -0.000
    3       -0.000  -0.000   0.000  -0.000
--------------------------------------------------
tot         -0.000  -0.000   0.000  -0.000
 

 total amount of memory used by VASP MPI-rank0    99551. kBytes
=======================================================================

   base      :      30000. kBytes
   nonlr-proj:       1986. kBytes
   fftplans  :       3151. kBytes
   grid      :      21565. kBytes
   one-center:        186. kBytes
   wavefun   :      42663. kBytes
 
  
  
 General timing and accounting informations for this job:
 ========================================================
  
                  Total CPU time used (sec):      137.426
                            User time (sec):      135.794
                          System time (sec):        1.632
                         Elapsed time (sec):      146.669
  
                   Maximum memory used (kb):      174932.
                   Average memory used (kb):           0.
  
                          Minor page faults:        36262
                          Major page faults:            0
                 Voluntary context switches:         1907
