 vasp.5.4.4.18Apr17-6-g9f103f2a35 (build Nov 25 2019 16:06:44) complex          
  
 executed on             LinuxIFC date 2021.05.14  20:16:32
 running on   48 total cores
 distrk:  each k-point on   48 cores,    1 groups
 distr:  one band on NCORES_PER_BAND=   1 cores,   48 groups


--------------------------------------------------------------------------------------------------------


 INCAR:
 POTCAR:    PAW_PBE W 08Apr2002                   
 POTCAR:    PAW_PBE Mo 08Apr2002                  
 POTCAR:    PAW_PBE S 06Sep2000                   

 ----------------------------------------------------------------------------- 
|                                                                             |
|           W    W    AA    RRRRR   N    N  II  N    N   GGGG   !!!           |
|           W    W   A  A   R    R  NN   N  II  NN   N  G    G  !!!           |
|           W    W  A    A  R    R  N N  N  II  N N  N  G       !!!           |
|           W WW W  AAAAAA  RRRRR   N  N N  II  N  N N  G  GGG   !            |
|           WW  WW  A    A  R   R   N   NN  II  N   NN  G    G                |
|           W    W  A    A  R    R  N    N  II  N    N   GGGG   !!!           |
|                                                                             |
|      For optimal performance we recommend to set                            |
|        NCORE= 4 - approx SQRT( number of cores)                             |
|      NCORE specifies how many cores store one orbital (NPAR=cpu/NCORE).     |
|      This setting can  greatly improve the performance of VASP for DFT.     |
|      The default,   NCORE=1            might be grossly inefficient         |
|      on modern multi-core architectures or massively parallel machines.     |
|      Do your own testing !!!!                                               |
|      Unfortunately you need to use the default for GW and RPA calculations. |
|      (for HF NCORE is supported but not extensively tested yet)             |
|                                                                             |
 ----------------------------------------------------------------------------- 

 POTCAR:    PAW_PBE W 08Apr2002                   
   VRHFIN =W : 6s5d                                                             
   LEXCH  = PE                                                                  
   EATOM  =   204.6103 eV,   15.0384 Ry                                         
                                                                                
   TITEL  = PAW_PBE W 08Apr2002                                                 
   LULTRA =        F    use ultrasoft PP ?                                      
   IUNSCR =        1    unscreen: 0-lin 1-nonlin 2-no                           
   RPACOR =    2.330    partial core radius                                     
   POMASS =  183.850; ZVAL   =    6.000    mass and valenz                      
   RCORE  =    2.750    outmost cutoff radius                                   
   RWIGS  =    2.750; RWIGS  =    1.455    wigner-seitz radius (au A)           
   ENMAX  =  223.057; ENMIN  =  167.293 eV                                      
   RCLOC  =    2.147    cutoff for local pot                                    
   LCOR   =        T    correct aug charges                                     
   LPAW   =        T    paw PP                                                  
   EAUG   =  373.438                                                            
   DEXC   =    0.000                                                            
   RMAX   =    2.801    core radius for proj-oper                               
   RAUG   =    1.300    factor for augmentation sphere                          
   RDEP   =    2.886    radius for radial grids                                 
   RDEPT  =    2.230    core radius for aug-charge                              
                                                                                
   Atomic configuration                                                         
   16 entries                                                                   
     n  l   j            E        occ.                                          
     1  0  0.50    -69465.5836   2.0000                                         
     2  0  0.50    -11986.2642   2.0000                                         
     2  1  1.50    -10479.8616   6.0000                                         
     3  0  0.50     -2759.0758   2.0000                                         
     3  1  1.50     -2313.1857   6.0000                                         
     3  2  2.50     -1801.1185  10.0000                                         
     4  0  0.50      -567.6791   2.0000                                         
     4  1  1.50      -421.4694   6.0000                                         
     4  2  2.50      -236.3473  10.0000                                         
     4  3  3.50       -31.2666  14.0000                                         
     5  0  0.50       -77.1085   2.0000                                         
     5  1  1.50       -41.3856   6.0000                                         
     5  2  2.50        -3.3185   5.0000                                         
     6  0  0.50        -5.1438   1.0000                                         
     6  1  0.50        -3.8096   0.0000                                         
     5  3  2.50        -1.3606   0.0000                                         
   Description                                                                  
     l       E           TYP  RCUT    TYP  RCUT                                 
     2     -3.3185288     23  2.500                                             
     2     -1.5965414     23  2.500                                             
     0     -5.1438054     23  2.500                                             
     0      4.9117504     23  2.500                                             
     1      2.7211652     23  2.750                                             
     1     27.2116520     23  2.750                                             
  local pseudopotential read in
  partial core-charges read in
  partial kinetic energy density read in
  atomic valenz-charges read in
  non local Contribution for L=           2  read in
    real space projection operators read in
  non local Contribution for L=           2  read in
    real space projection operators read in
  non local Contribution for L=           0  read in
    real space projection operators read in
  non local Contribution for L=           0  read in
    real space projection operators read in
  non local Contribution for L=           1  read in
    real space projection operators read in
  non local Contribution for L=           1  read in
    real space projection operators read in
    PAW grid and wavefunctions read in
 
   number of l-projection  operators is LMAX  =           6
   number of lm-projection operators is LMMAX =          18
 
 POTCAR:    PAW_PBE Mo 08Apr2002                  
   VRHFIN =Mo: 4p5s4d                                                           
   LEXCH  = PE                                                                  
   EATOM  =   217.5176 eV,   15.9871 Ry                                         
                                                                                
   TITEL  = PAW_PBE Mo 08Apr2002                                                
   LULTRA =        F    use ultrasoft PP ?                                      
   IUNSCR =        1    unscreen: 0-lin 1-nonlin 2-no                           
   RPACOR =    2.200    partial core radius                                     
   POMASS =   95.940; ZVAL   =    6.000    mass and valenz                      
   RCORE  =    2.750    outmost cutoff radius                                   
   RWIGS  =    2.750; RWIGS  =    1.455    wigner-seitz radius (au A)           
   ENMAX  =  224.584; ENMIN  =  168.438 eV                                      
   RCLOC  =    2.111    cutoff for local pot                                    
   LCOR   =        T    correct aug charges                                     
   LPAW   =        T    paw PP                                                  
   EAUG   =  345.278                                                            
   DEXC   =    0.000                                                            
   RMAX   =    2.821    core radius for proj-oper                               
   RAUG   =    1.300    factor for augmentation sphere                          
   RDEP   =    2.815    radius for radial grids                                 
   RDEPT  =    2.211    core radius for aug-charge                              
                                                                                
   Atomic configuration                                                         
   12 entries                                                                   
     n  l   j            E        occ.                                          
     1  0  0.50    -19819.0341   2.0000                                         
     2  0  0.50     -2799.0127   2.0000                                         
     2  1  1.50     -2502.0276   6.0000                                         
     3  0  0.50      -476.4448   2.0000                                         
     3  1  1.50      -379.1496   6.0000                                         
     3  2  2.50      -220.9367  10.0000                                         
     4  0  0.50       -64.3378   2.0000                                         
     4  1  1.50       -38.4773   6.0000                                         
     4  2  2.50        -3.7535   5.0000                                         
     5  0  0.50        -4.0862   1.0000                                         
     5  1  0.50        -2.7701   0.0000                                         
     4  3  2.50        -1.3606   0.0000                                         
   Description                                                                  
     l       E           TYP  RCUT    TYP  RCUT                                 
     2     -3.7534765     23  2.500                                             
     2     -5.1140591     23  2.500                                             
     0     -4.0861560     23  2.600                                             
     0     13.6058260     23  2.600                                             
     1      5.4423304     23  2.750                                             
     1     27.2116520     23  2.750                                             
  local pseudopotential read in
  partial core-charges read in
  partial kinetic energy density read in
  atomic valenz-charges read in
  non local Contribution for L=           2  read in
    real space projection operators read in
  non local Contribution for L=           2  read in
    real space projection operators read in
  non local Contribution for L=           0  read in
    real space projection operators read in
  non local Contribution for L=           0  read in
    real space projection operators read in
  non local Contribution for L=           1  read in
    real space projection operators read in
  non local Contribution for L=           1  read in
    real space projection operators read in
    PAW grid and wavefunctions read in
 
   number of l-projection  operators is LMAX  =           6
   number of lm-projection operators is LMMAX =          18
 
 POTCAR:    PAW_PBE S 06Sep2000                   
   VRHFIN =S : s2p4                                                             
   LEXCH  = PE                                                                  
   EATOM  =   276.8230 eV,   20.3459 Ry                                         
                                                                                
   TITEL  = PAW_PBE S 06Sep2000                                                 
   LULTRA =        F    use ultrasoft PP ?                                      
   IUNSCR =        1    unscreen: 0-lin 1-nonlin 2-no                           
   RPACOR =    1.500    partial core radius                                     
   POMASS =   32.066; ZVAL   =    6.000    mass and valenz                      
   RCORE  =    1.900    outmost cutoff radius                                   
   RWIGS  =    2.200; RWIGS  =    1.164    wigner-seitz radius (au A)           
   ENMAX  =  258.689; ENMIN  =  194.016 eV                                      
   ICORE  =        2    local potential                                         
   LCOR   =        T    correct aug charges                                     
   LPAW   =        T    paw PP                                                  
   EAUG   =  335.092                                                            
   DEXC   =    0.000                                                            
   RMAX   =    1.942    core radius for proj-oper                               
   RAUG   =    1.300    factor for augmentation sphere                          
   RDEP   =    1.954    radius for radial grids                                 
   RDEPT  =    1.744    core radius for aug-charge                              
                                                                                
   Atomic configuration                                                         
    6 entries                                                                   
     n  l   j            E        occ.                                          
     1  0  0.50     -2405.8406   2.0000                                         
     2  0  0.50      -211.7007   2.0000                                         
     2  1  1.50      -156.4958   6.0000                                         
     3  0  0.50       -17.2562   2.0000                                         
     3  1  0.50        -7.0085   4.0000                                         
     3  2  1.50        -6.8029   0.0000                                         
   Description                                                                  
     l       E           TYP  RCUT    TYP  RCUT                                 
     0    -17.2561641     23  1.900                                             
     0    -15.8743224     23  1.900                                             
     1     -7.0085400     23  1.900                                             
     1     -2.7779785     23  1.900                                             
     2     -6.8029130     23  1.900                                             
  local pseudopotential read in
  partial core-charges read in
  partial kinetic energy density read in
  atomic valenz-charges read in
  non local Contribution for L=           0  read in
    real space projection operators read in
  non local Contribution for L=           0  read in
    real space projection operators read in
  non local Contribution for L=           1  read in
    real space projection operators read in
  non local Contribution for L=           1  read in
    real space projection operators read in
    PAW grid and wavefunctions read in
 
   number of l-projection  operators is LMAX  =           4
   number of lm-projection operators is LMMAX =           8
 
  PAW_PBE W 08Apr2002                   :
 energy of atom  1       EATOM= -204.6103
 kinetic energy error for atom=    0.0017 (will be added to EATOM!!)
  PAW_PBE Mo 08Apr2002                  :
 energy of atom  2       EATOM= -217.5176
 kinetic energy error for atom=    0.0017 (will be added to EATOM!!)
  PAW_PBE S 06Sep2000                   :
 energy of atom  3       EATOM= -276.8230
 kinetic energy error for atom=    0.0020 (will be added to EATOM!!)
 
 
 POSCAR: 0-3r                                    
  positions in direct lattice
  velocities in cartesian coordinates
 exchange correlation table for  LEXCH =        8
   RHO(1)=    0.500       N(1)  =     2000
   RHO(2)=  100.500       N(2)  =     4000
 


--------------------------------------------------------------------------------------------------------


 ion  position               nearest neighbor table
   1  0.332  0.666  0.292-   4 2.41   4 2.41   4 2.41   3 2.41   3 2.41   3 2.41
   2  0.998  0.999  0.542-   6 2.40   6 2.40   6 2.40   5 2.40   5 2.40   5 2.40
   3  0.665  0.333  0.227-   1 2.41   1 2.41   1 2.41
   4  0.665  0.333  0.357-   1 2.41   1 2.41   1 2.41
   5  0.331  0.666  0.606-   2 2.40   2 2.40   2 2.40
   6  0.331  0.666  0.477-   2 2.40   2 2.40   2 2.40
 

IMPORTANT INFORMATION: All symmetrisations will be switched off!
NOSYMM: (Re-)initialisation of all symmetry stuff for point group C_1.

 
 
 KPOINTS: Automatically generated mesh            
  k-points in reciprocal lattice
Space group operators:
 irot       det(A)        alpha          n_x          n_y          n_z        tau_x        tau_y        tau_z
    1     1.000000     0.000000     1.000000     0.000000     0.000000     0.000000     0.000000     0.000000

 ----------------------------------------------------------------------------- 
|                                                                             |
|           W    W    AA    RRRRR   N    N  II  N    N   GGGG   !!!           |
|           W    W   A  A   R    R  NN   N  II  NN   N  G    G  !!!           |
|           W    W  A    A  R    R  N N  N  II  N N  N  G       !!!           |
|           W WW W  AAAAAA  RRRRR   N  N N  II  N  N N  G  GGG   !            |
|           WW  WW  A    A  R   R   N   NN  II  N   NN  G    G                |
|           W    W  A    A  R    R  N    N  II  N    N   GGGG   !!!           |
|                                                                             |
|      Your generating k-point grid is not commensurate to the symmetry       |
|      of the lattice.  This can cause   slow convergence with respect        |
|      to k-points for HF type calculations                                   |
|      suggested SOLUTIONS:                                                   |
|       ) if not already the case, use automatic k-point generation           |
|       ) shift your grid to Gamma (G) (e.g. required for hex or fcc lattice) |
|                                                                             |
 ----------------------------------------------------------------------------- 

 
 Subroutine IBZKPT_HF returns following result:
 ==============================================
 
 Found    163 k-points in 1st BZ
 the following    163 k-points will be used (e.g. in the exchange kernel)
 Following reciprocal coordinates:   # in IRBZ
  0.000000  0.000000  0.000000    0.01562500   1 t-inv F
  0.125000  0.000000  0.000000    0.01562500   2 t-inv F
  0.250000  0.000000  0.000000    0.01562500   3 t-inv F
  0.375000  0.000000  0.000000    0.01562500   4 t-inv F
  0.500000  0.000000  0.000000    0.01562500   5 t-inv F
  0.000000  0.125000  0.000000    0.01562500   6 t-inv F
  0.125000  0.125000  0.000000    0.01562500   7 t-inv F
  0.250000  0.125000  0.000000    0.01562500   8 t-inv F
  0.375000  0.125000  0.000000    0.01562500   9 t-inv F
  0.500000  0.125000  0.000000    0.01562500  10 t-inv F
 -0.375000  0.125000  0.000000    0.01562500  11 t-inv F
 -0.250000  0.125000  0.000000    0.01562500  12 t-inv F
 -0.125000  0.125000  0.000000    0.01562500  13 t-inv F
  0.000000  0.250000  0.000000    0.01562500  14 t-inv F
  0.125000  0.250000  0.000000    0.01562500  15 t-inv F
  0.250000  0.250000  0.000000    0.01562500  16 t-inv F
  0.375000  0.250000  0.000000    0.01562500  17 t-inv F
  0.500000  0.250000  0.000000    0.01562500  18 t-inv F
 -0.375000  0.250000  0.000000    0.01562500  19 t-inv F
 -0.250000  0.250000  0.000000    0.01562500  20 t-inv F
 -0.125000  0.250000  0.000000    0.01562500  21 t-inv F
  0.000000  0.375000  0.000000    0.01562500  22 t-inv F
  0.125000  0.375000  0.000000    0.01562500  23 t-inv F
  0.250000  0.375000  0.000000    0.01562500  24 t-inv F
  0.375000  0.375000  0.000000    0.01562500  25 t-inv F
  0.500000  0.375000  0.000000    0.01562500  26 t-inv F
 -0.375000  0.375000  0.000000    0.01562500  27 t-inv F
 -0.250000  0.375000  0.000000    0.01562500  28 t-inv F
 -0.125000  0.375000  0.000000    0.01562500  29 t-inv F
  0.000000  0.500000  0.000000    0.01562500  30 t-inv F
  0.125000  0.500000  0.000000    0.01562500  31 t-inv F
  0.250000  0.500000  0.000000    0.01562500  32 t-inv F
  0.375000  0.500000  0.000000    0.01562500  33 t-inv F
  0.500000  0.500000  0.000000    0.01562500  34 t-inv F
  0.000000  0.000000  0.000000    0.00000000  35 t-inv F
  0.000000  0.015625  0.000000    0.00000000  36 t-inv F
  0.000000  0.031250  0.000000    0.00000000  37 t-inv F
  0.000000  0.046875  0.000000    0.00000000  38 t-inv F
  0.000000  0.062500  0.000000    0.00000000  39 t-inv F
  0.000000  0.078125  0.000000    0.00000000  40 t-inv F
  0.000000  0.093750  0.000000    0.00000000  41 t-inv F
  0.000000  0.109375  0.000000    0.00000000  42 t-inv F
  0.000000  0.125000  0.000000    0.00000000  43 t-inv F
  0.000000  0.140625  0.000000    0.00000000  44 t-inv F
  0.000000  0.156250  0.000000    0.00000000  45 t-inv F
  0.000000  0.171875  0.000000    0.00000000  46 t-inv F
  0.000000  0.187500  0.000000    0.00000000  47 t-inv F
  0.000000  0.203125  0.000000    0.00000000  48 t-inv F
  0.000000  0.218750  0.000000    0.00000000  49 t-inv F
  0.000000  0.234375  0.000000    0.00000000  50 t-inv F
  0.000000  0.250000  0.000000    0.00000000  51 t-inv F
  0.000000  0.265625  0.000000    0.00000000  52 t-inv F
  0.000000  0.281250  0.000000    0.00000000  53 t-inv F
  0.000000  0.296875  0.000000    0.00000000  54 t-inv F
  0.000000  0.312500  0.000000    0.00000000  55 t-inv F
  0.000000  0.328125  0.000000    0.00000000  56 t-inv F
  0.000000  0.343750  0.000000    0.00000000  57 t-inv F
  0.000000  0.359375  0.000000    0.00000000  58 t-inv F
  0.000000  0.375000  0.000000    0.00000000  59 t-inv F
  0.000000  0.390625  0.000000    0.00000000  60 t-inv F
  0.000000  0.406250  0.000000    0.00000000  61 t-inv F
  0.000000  0.421875  0.000000    0.00000000  62 t-inv F
  0.000000  0.437500  0.000000    0.00000000  63 t-inv F
  0.000000  0.453125  0.000000    0.00000000  64 t-inv F
  0.000000  0.468750  0.000000    0.00000000  65 t-inv F
  0.000000  0.484375  0.000000    0.00000000  66 t-inv F
  0.000000  0.500000  0.000000    0.00000000  67 t-inv F
  0.000000  0.500000  0.000000    0.00000000  68 t-inv F
  0.010417  0.494792  0.000000    0.00000000  69 t-inv F
  0.020833  0.489583  0.000000    0.00000000  70 t-inv F
  0.031250  0.484375  0.000000    0.00000000  71 t-inv F
  0.041667  0.479167  0.000000    0.00000000  72 t-inv F
  0.052083  0.473958  0.000000    0.00000000  73 t-inv F
  0.062500  0.468750  0.000000    0.00000000  74 t-inv F
  0.072917  0.463542  0.000000    0.00000000  75 t-inv F
  0.083333  0.458333  0.000000    0.00000000  76 t-inv F
  0.093750  0.453125  0.000000    0.00000000  77 t-inv F
  0.104167  0.447917  0.000000    0.00000000  78 t-inv F
  0.114583  0.442708  0.000000    0.00000000  79 t-inv F
  0.125000  0.437500  0.000000    0.00000000  80 t-inv F
  0.135417  0.432292  0.000000    0.00000000  81 t-inv F
  0.145833  0.427083  0.000000    0.00000000  82 t-inv F
  0.156250  0.421875  0.000000    0.00000000  83 t-inv F
  0.166666  0.416666  0.000000    0.00000000  84 t-inv F
  0.177083  0.411458  0.000000    0.00000000  85 t-inv F
  0.187500  0.406250  0.000000    0.00000000  86 t-inv F
  0.197916  0.401041  0.000000    0.00000000  87 t-inv F
  0.208333  0.395833  0.000000    0.00000000  88 t-inv F
  0.218750  0.390625  0.000000    0.00000000  89 t-inv F
  0.229166  0.385416  0.000000    0.00000000  90 t-inv F
  0.239583  0.380208  0.000000    0.00000000  91 t-inv F
  0.250000  0.375000  0.000000    0.00000000  92 t-inv F
  0.260416  0.369791  0.000000    0.00000000  93 t-inv F
  0.270833  0.364583  0.000000    0.00000000  94 t-inv F
  0.281250  0.359375  0.000000    0.00000000  95 t-inv F
  0.291666  0.354166  0.000000    0.00000000  96 t-inv F
  0.302083  0.348958  0.000000    0.00000000  97 t-inv F
  0.312500  0.343750  0.000000    0.00000000  98 t-inv F
  0.322916  0.338541  0.000000    0.00000000  99 t-inv F
  0.333333  0.333333  0.000000    0.00000000 100 t-inv F
  0.333333  0.333333  0.000000    0.00000000 101 t-inv F
  0.322916  0.322916  0.000000    0.00000000 102 t-inv F
  0.312500  0.312500  0.000000    0.00000000 103 t-inv F
  0.302083  0.302083  0.000000    0.00000000 104 t-inv F
  0.291666  0.291666  0.000000    0.00000000 105 t-inv F
  0.281250  0.281250  0.000000    0.00000000 106 t-inv F
  0.270833  0.270833  0.000000    0.00000000 107 t-inv F
  0.260416  0.260416  0.000000    0.00000000 108 t-inv F
  0.250000  0.250000  0.000000    0.00000000 109 t-inv F
  0.239583  0.239583  0.000000    0.00000000 110 t-inv F
  0.229166  0.229166  0.000000    0.00000000 111 t-inv F
  0.218750  0.218750  0.000000    0.00000000 112 t-inv F
  0.208333  0.208333  0.000000    0.00000000 113 t-inv F
  0.197916  0.197916  0.000000    0.00000000 114 t-inv F
  0.187500  0.187500  0.000000    0.00000000 115 t-inv F
  0.177083  0.177083  0.000000    0.00000000 116 t-inv F
  0.166666  0.166666  0.000000    0.00000000 117 t-inv F
  0.156250  0.156250  0.000000    0.00000000 118 t-inv F
  0.145833  0.145833  0.000000    0.00000000 119 t-inv F
  0.135417  0.135417  0.000000    0.00000000 120 t-inv F
  0.125000  0.125000  0.000000    0.00000000 121 t-inv F
  0.114583  0.114583  0.000000    0.00000000 122 t-inv F
  0.104167  0.104167  0.000000    0.00000000 123 t-inv F
  0.093750  0.093750  0.000000    0.00000000 124 t-inv F
  0.083333  0.083333  0.000000    0.00000000 125 t-inv F
  0.072917  0.072917  0.000000    0.00000000 126 t-inv F
  0.062500  0.062500  0.000000    0.00000000 127 t-inv F
  0.052083  0.052083  0.000000    0.00000000 128 t-inv F
  0.041667  0.041667  0.000000    0.00000000 129 t-inv F
  0.031250  0.031250  0.000000    0.00000000 130 t-inv F
  0.020833  0.020833  0.000000    0.00000000 131 t-inv F
  0.010417  0.010417  0.000000    0.00000000 132 t-inv F
  0.000000  0.000000  0.000000    0.00000000 133 t-inv F
 -0.125000  0.000000  0.000000    0.01562500   2 t-inv T
 -0.250000  0.000000  0.000000    0.01562500   3 t-inv T
 -0.375000  0.000000  0.000000    0.01562500   4 t-inv T
  0.000000 -0.125000  0.000000    0.01562500   6 t-inv T
 -0.125000 -0.125000  0.000000    0.01562500   7 t-inv T
 -0.250000 -0.125000  0.000000    0.01562500   8 t-inv T
 -0.375000 -0.125000  0.000000    0.01562500   9 t-inv T
 -0.500000 -0.125000  0.000000    0.01562500  10 t-inv T
  0.375000 -0.125000  0.000000    0.01562500  11 t-inv T
  0.250000 -0.125000  0.000000    0.01562500  12 t-inv T
  0.125000 -0.125000  0.000000    0.01562500  13 t-inv T
  0.000000 -0.250000  0.000000    0.01562500  14 t-inv T
 -0.125000 -0.250000  0.000000    0.01562500  15 t-inv T
 -0.250000 -0.250000  0.000000    0.01562500  16 t-inv T
 -0.375000 -0.250000  0.000000    0.01562500  17 t-inv T
 -0.500000 -0.250000  0.000000    0.01562500  18 t-inv T
  0.375000 -0.250000  0.000000    0.01562500  19 t-inv T
  0.250000 -0.250000  0.000000    0.01562500  20 t-inv T
  0.125000 -0.250000  0.000000    0.01562500  21 t-inv T
  0.000000 -0.375000  0.000000    0.01562500  22 t-inv T
 -0.125000 -0.375000  0.000000    0.01562500  23 t-inv T
 -0.250000 -0.375000  0.000000    0.01562500  24 t-inv T
 -0.375000 -0.375000  0.000000    0.01562500  25 t-inv T
 -0.500000 -0.375000  0.000000    0.01562500  26 t-inv T
  0.375000 -0.375000  0.000000    0.01562500  27 t-inv T
  0.250000 -0.375000  0.000000    0.01562500  28 t-inv T
  0.125000 -0.375000  0.000000    0.01562500  29 t-inv T
 -0.125000 -0.500000  0.000000    0.01562500  31 t-inv T
 -0.250000 -0.500000  0.000000    0.01562500  32 t-inv T
 -0.375000 -0.500000  0.000000    0.01562500  33 t-inv T


--------------------------------------------------------------------------------------------------------




 Dimension of arrays:
   k-points           NKPTS =    133   k-points in BZ     NKDIM =    163   number of bands    NBANDS=     48
   number of dos      NEDOS =   2000   number of ions     NIONS =      6
   non local maximal  LDIM  =      6   non local SUM 2l+1 LMDIM =     18
   total plane-waves  NPLWV = 103680
   max r-space proj   IRMAX =      1   max aug-charges    IRDMAX=  32161
   dimension x,y,z NGX =    24 NGY =   24 NGZ =  180
   dimension x,y,z NGXF=    48 NGYF=   48 NGZF=  360
   support grid    NGXF=    48 NGYF=   48 NGZF=  360
   ions per type =               1   1   4
   NGX,Y,Z   is equivalent  to a cutoff of  12.66, 12.66, 12.36 a.u.
   NGXF,Y,Z  is equivalent  to a cutoff of  25.32, 25.32, 24.73 a.u.

 SYSTEM =  WS2                                     
 POSCAR =  0-3r                                    

 Startparameter for this run:
   NWRITE =      2    write-flag & timer
   PREC   = accura    normal or accurate (medium, high low for compatibility)
   ISTART =      1    job   : 0-new  1-cont  2-samecut
   ICHARG =     11    charge: 1-file 2-atom 10-const
   ISPIN  =      1    spin polarized calculation?
   LNONCOLLINEAR =      F non collinear calculations
   LSORBIT =      F    spin-orbit coupling
   INIWAV =      1    electr: 0-lowe 1-rand  2-diag
   LASPH  =      F    aspherical Exc in radial PAW
   METAGGA=      F    non-selfconsistent MetaGGA calc.

 Electronic Relaxation 1
   ENCUT  =  500.0 eV  36.75 Ry    6.06 a.u.   5.75  5.75 44.13*2*pi/ulx,y,z
   ENINI  =  500.0     initial cutoff
   ENAUG  =  373.4 eV  augmentation charge cutoff
   NELM   =    120;   NELMIN=  2; NELMDL=  0     # of ELM steps 
   EDIFF  = 0.1E-05   stopping-criterion for ELM
   LREAL  =      F    real-space projection
   NLSPLINE    = F    spline interpolate recip. space projectors
   LCOMPAT=      F    compatible to vasp.4.4
   GGA_COMPAT  = T    GGA compatible to vasp.4.4-vasp.4.6
   LMAXPAW     = -100 max onsite density
   LMAXMIX     =    2 max onsite mixed and CHGCAR
   VOSKOWN=      0    Vosko Wilk Nusair interpolation
   ROPT   =    0.00000   0.00000   0.00000
 Ionic relaxation
   EDIFFG = -.1E-02   stopping-criterion for IOM
   NSW    =      0    number of steps for IOM
   NBLOCK =      1;   KBLOCK =      1    inner block; outer block 
   IBRION =     -1    ionic relax: 0-MD 1-quasi-New 2-CG
   NFREE  =      1    steps in history (QN), initial steepest desc. (CG)
   ISIF   =      2    stress and relaxation
   IWAVPR =     10    prediction:  0-non 1-charg 2-wave 3-comb
   ISYM   =      0    0-nonsym 1-usesym 2-fastsym
   LCORR  =      T    Harris-Foulkes like correction to forces

   POTIM  = 0.1000    time-step for ionic-motion
   TEIN   =    0.0    initial temperature
   TEBEG  =    0.0;   TEEND  =   0.0 temperature during run
   SMASS  =  -3.00    Nose mass-parameter (am)
   estimated Nose-frequenzy (Omega)   =  0.10E-29 period in steps =****** mass=  -0.227E-27a.u.
   SCALEE = 1.0000    scale energy and forces
   NPACO  =    256;   APACO  = 16.0  distance and # of slots for P.C.
   PSTRESS=    0.0 pullay stress

  Mass of Ions in am
   POMASS = 183.85 95.94 32.07
  Ionic Valenz
   ZVAL   =   6.00  6.00  6.00
  Atomic Wigner-Seitz radii
   RWIGS  =  -1.00 -1.00 -1.00
  virtual crystal weights 
   VCA    =   1.00  1.00  1.00
   NELECT =      36.0000    total number of electrons
   NUPDOWN=      -1.0000    fix difference up-down

 DOS related values:
   EMIN   =  10.00;   EMAX   =-10.00  energy-range for DOS
   EFERMI =   0.00
   ISMEAR =     0;   SIGMA  =   0.05  broadening in eV -4-tet -1-fermi 0-gaus

 Electronic relaxation 2 (details)
   IALGO  =     53    algorithm
   LDIAG  =      T    sub-space diagonalisation (order eigenvalues)
   LSUBROT=      F    optimize rotation matrix (better conditioning)
   TURBO    =      0    0=normal 1=particle mesh
   IRESTART =      0    0=no restart 2=restart with 2 vectors
   NREBOOT  =      0    no. of reboots
   NMIN     =      0    reboot dimension
   EREF     =   0.00    reference energy to select bands
   IMIX   =      4    mixing-type and parameters
     AMIX     =   0.40;   BMIX     =  1.00
     AMIX_MAG =   1.60;   BMIX_MAG =  1.00
     AMIN     =   0.10
     WC   =   100.;   INIMIX=   1;  MIXPRE=   1;  MAXMIX= -45

 Intra band minimization:
   WEIMIN = 0.0000     energy-eigenvalue tresh-hold
   EBREAK =  0.52E-08  absolut break condition
   DEPER  =   0.30     relativ break condition  

   TIME   =   0.40     timestep for ELM

  volume/ion in A,a.u.               =      34.71       234.22
  Fermi-wavevector in a.u.,A,eV,Ry     =   0.911976  1.723384 11.315962  0.831700
  Thomas-Fermi vector in A             =   2.036318
 
 Write flags
   LWAVE        =      T    write WAVECAR
   LDOWNSAMPLE  =      F    k-point downsampling of WAVECAR
   LCHARG       =      T    write CHGCAR
   LVTOT        =      F    write LOCPOT, total local potential
   LVHAR        =      F    write LOCPOT, Hartree potential only
   LELF         =      F    write electronic localiz. function (ELF)
   LORBIT       =     11    0 simple, 1 ext, 2 COOP (PROOUT), +10 PAW based schemes


 Dipole corrections
   LMONO  =      F    monopole corrections only (constant potential shift)
   LDIPOL =      F    correct potential (dipole corrections)
   IDIPOL =      0    1-x, 2-y, 3-z, 4-all directions 
   EPSILON=  1.0000000 bulk dielectric constant

 Exchange correlation treatment:
   GGA     =    --    GGA type
   LEXCH   =     8    internal setting for exchange type
   VOSKOWN=      0    Vosko Wilk Nusair interpolation
   EXXOEP  =     0    0=HF, 1=EXX-LHF (local Hartree Fock) 2=EXX OEP
   LHFCALC =     T    Hartree Fock is set to
   LSYMGRAD=     F    symmetrize gradient (conserves proper symmetry)
   PRECFOCK=normal    Normal, Fast or Accurate (Low or Medium for compatibility)
   LRHFCALC=     F    long range Hartree Fock
   LRSCOR  =     F    long range correlation only (use DFT for short range part)
   LTHOMAS =     F    Thomas Fermi screening in HF
   LMODELHF=     F    short range full HF, long range fraction AEXX
   ENCUT4O =  -1.0   cutoff for four orbital integrals eV
   LMAXFOCK=     4    L truncation for augmentation on plane wave grid
   LMAXFOCKAE=  -1    L truncation for all-electron charge restoration on plane wave grid
   NMAXFOCKAE=   1    number of basis functions for all-electron charge restoration
   LFOCKAEDFT=     F  apply the AE augmentation even for DFT
   NKREDX  =     1    reduce k-point grid by
   NKREDY  =     1    reduce k-point grid by
   NKREDZ  =     1    reduce k-point grid by
   SHIFTRED=     F    shift reduced grid of Gamma
   HFKIDENT=     F    idential grid for each k-point
   ODDONLY =     F    use only odd q-grid points
   EVENONLY=     F    use only even q-grid points
   HFALPHA =   -1.0000 decay constant for conv. correction
   MCALPHA =    0.0000 extent of test-charge in conv. correction in multipole expansion
   AEXX    =    0.2500 exact exchange contribution
   HFSCREEN=    0.2000 screening length (either q_TF or 0.3 A-1)
   HFSCREENC=   0.2000 screening length for correlation (either q_TF or 0.3 A-1)
   HFRCUT  =    0.0000 spherical cutoff for potential kernel
   ALDAX   =    0.7500 LDA exchange part
   AGGAX   =    0.7500 GGA exchange part
   ALDAC   =    1.0000 LDA correlation
   AGGAC   =    1.0000 GGA correlation
   ENCUTFOCK=  -1.0 apply spherical cutoff to Coloumb kernel
   NBANDSGWLOW=     1    first orbital included in HF term
   NBLOCK_FOCK=    64    blocking factor in FOCK_ACC
 Linear response parameters
   LEPSILON=     F    determine dielectric tensor
   LRPA    =     F    only Hartree local field effects (RPA)
   LNABLA  =     F    use nabla operator in PAW spheres
   LVEL    =     F    velocity operator in full k-point grid
   LINTERFAST=   F  fast interpolation
   KINTER  =     0    interpolate to denser k-point grid
   CSHIFT  =0.1000    complex shift for real part using Kramers Kronig
   OMEGAMAX=  -1.0    maximum frequency
   DEG_THRESHOLD= 0.2000000E-02 threshold for treating states as degnerate
   RTIME   =   -0.100 relaxation time in fs
  (WPLASMAI=    0.000 imaginary part of plasma frequency in eV, 0.658/RTIME)
   DFIELD  = 0.0000000 0.0000000 0.0000000 field for delta impulse in time
 
 Orbital magnetization related:
   ORBITALMAG=     F  switch on orbital magnetization
   LCHIMAG   =     F  perturbation theory with respect to B field
   DQ        =  0.001000  dq finite difference perturbation B field
   LLRAUG    =     F  two centre corrections for induced B field



--------------------------------------------------------------------------------------------------------


 Static calculation
 charge density and potential remain constant during run
 non-spin polarized calculation
 Conjugate gradient for all bands (Freysoldt, et al. PRB 79, 241103 (2009))
 perform sub-space diagonalisation
    before iterative eigenvector-optimisation
 no mixing
 using additional bands           30
 reciprocal scheme for non local part
 use partial core corrections
 calculate Harris-corrections to forces 
   (improved forces if not selfconsistent)
 use gradient corrections 
 WARNING: stress and forces are not correct
  (second derivative of E(xc) not defined)
 use of overlap-Matrix (Vanderbilt PP)
 Gauss-broadening in eV      SIGMA  =   0.05


--------------------------------------------------------------------------------------------------------


  energy-cutoff  :      500.00
  volume of cell :      208.25
      direct lattice vectors                 reciprocal lattice vectors
     3.152059248  0.000001834  0.000000000     0.317252813  0.183165354  0.000000000
    -1.576021061  2.729758131  0.000000000    -0.000000213  0.366332699  0.000000000
     0.000000000  0.000000000 24.202400207     0.000000000  0.000000000  0.041318216

  length of vectors
     3.152059248  3.152050418 24.202400207     0.366331673  0.366332699  0.041318216


 
 old parameters found on file WAVECAR:
  energy-cutoff  :      500.00
  volume of cell :      208.25
      direct lattice vectors                 reciprocal lattice vectors
     3.152059248  0.000001834  0.000000000     0.317252813  0.183165354  0.000000000
    -1.576021061  2.729758131  0.000000000    -0.000000213  0.366332699  0.000000000
     0.000000000  0.000000000 24.202400207     0.000000000  0.000000000  0.041318216

  length of vectors

 
 k-points in units of 2pi/SCALE and weight: Automatically generated mesh            
   0.00000000  0.00000000  0.00000000       0.016
   0.03965660  0.02289567  0.00000000       0.031
   0.07931320  0.04579134  0.00000000       0.031
   0.11896980  0.06868701  0.00000000       0.031
   0.15862641  0.09158268  0.00000000       0.016
  -0.00000003  0.04579159  0.00000000       0.031
   0.03965658  0.06868726  0.00000000       0.031
   0.07931318  0.09158293  0.00000000       0.031
   0.11896978  0.11447860  0.00000000       0.031
   0.15862638  0.13737426  0.00000000       0.031
  -0.11896983 -0.02289542  0.00000000       0.031
  -0.07931323  0.00000025  0.00000000       0.031
  -0.03965663  0.02289592  0.00000000       0.031
  -0.00000005  0.09158317  0.00000000       0.031
   0.03965655  0.11447884  0.00000000       0.031
   0.07931315  0.13737451  0.00000000       0.031
   0.11896975  0.16027018  0.00000000       0.031
   0.15862635  0.18316585  0.00000000       0.031
  -0.11896986  0.02289617  0.00000000       0.031
  -0.07931326  0.04579184  0.00000000       0.031
  -0.03965665  0.06868751  0.00000000       0.031
  -0.00000008  0.13737476  0.00000000       0.031
   0.03965652  0.16027043  0.00000000       0.031
   0.07931312  0.18316610  0.00000000       0.031
   0.11896973  0.20606177  0.00000000       0.031
   0.15862633  0.22895744  0.00000000       0.031
  -0.11896988  0.06868775  0.00000000       0.031
  -0.07931328  0.09158342  0.00000000       0.031
  -0.03965668  0.11447909  0.00000000       0.031
  -0.00000011  0.18316635  0.00000000       0.016
   0.03965650  0.20606202  0.00000000       0.031
   0.07931310  0.22895769  0.00000000       0.031
   0.11896970  0.25185336  0.00000000       0.031
   0.15862630  0.27474903  0.00000000       0.016
   0.00000000  0.00000000  0.00000000       0.000
  -0.00000000  0.00572395  0.00000000       0.000
  -0.00000001  0.01144790  0.00000000       0.000
  -0.00000001  0.01717185  0.00000000       0.000
  -0.00000001  0.02289579  0.00000000       0.000
  -0.00000002  0.02861974  0.00000000       0.000
  -0.00000002  0.03434369  0.00000000       0.000
  -0.00000002  0.04006764  0.00000000       0.000
  -0.00000003  0.04579159  0.00000000       0.000
  -0.00000003  0.05151554  0.00000000       0.000
  -0.00000003  0.05723948  0.00000000       0.000
  -0.00000004  0.06296343  0.00000000       0.000
  -0.00000004  0.06868738  0.00000000       0.000
  -0.00000004  0.07441133  0.00000000       0.000
  -0.00000005  0.08013528  0.00000000       0.000
  -0.00000005  0.08585923  0.00000000       0.000
  -0.00000005  0.09158317  0.00000000       0.000
  -0.00000006  0.09730712  0.00000000       0.000
  -0.00000006  0.10303107  0.00000000       0.000
  -0.00000006  0.10875502  0.00000000       0.000
  -0.00000007  0.11447897  0.00000000       0.000
  -0.00000007  0.12020292  0.00000000       0.000
  -0.00000007  0.12592687  0.00000000       0.000
  -0.00000008  0.13165081  0.00000000       0.000
  -0.00000008  0.13737476  0.00000000       0.000
  -0.00000008  0.14309871  0.00000000       0.000
  -0.00000009  0.14882266  0.00000000       0.000
  -0.00000009  0.15454661  0.00000000       0.000
  -0.00000009  0.16027056  0.00000000       0.000
  -0.00000010  0.16599450  0.00000000       0.000
  -0.00000010  0.17171845  0.00000000       0.000
  -0.00000010  0.17744240  0.00000000       0.000
  -0.00000011  0.18316635  0.00000000       0.000
  -0.00000011  0.18316635  0.00000000       0.000
   0.00330472  0.18316652  0.00000000       0.000
   0.00660922  0.18316615  0.00000000       0.000
   0.00991405  0.18316632  0.00000000       0.000
   0.01321887  0.18316649  0.00000000       0.000
   0.01652338  0.18316611  0.00000000       0.000
   0.01982820  0.18316629  0.00000000       0.000
   0.02313302  0.18316646  0.00000000       0.000
   0.02643753  0.18316608  0.00000000       0.000
   0.02974235  0.18316626  0.00000000       0.000
   0.03304718  0.18316643  0.00000000       0.000
   0.03635168  0.18316605  0.00000000       0.000
   0.03965651  0.18316623  0.00000000       0.000
   0.04296133  0.18316640  0.00000000       0.000
   0.04626584  0.18316602  0.00000000       0.000
   0.04957066  0.18316619  0.00000000       0.000
   0.05287517  0.18316582  0.00000000       0.000
   0.05617999  0.18316599  0.00000000       0.000
   0.05948482  0.18316616  0.00000000       0.000
   0.06278932  0.18316579  0.00000000       0.000
   0.06609415  0.18316596  0.00000000       0.000
   0.06939897  0.18316613  0.00000000       0.000
   0.07270348  0.18316576  0.00000000       0.000
   0.07600830  0.18316593  0.00000000       0.000
   0.07931312  0.18316610  0.00000000       0.000
   0.08261763  0.18316572  0.00000000       0.000
   0.08592245  0.18316590  0.00000000       0.000
   0.08922728  0.18316607  0.00000000       0.000
   0.09253178  0.18316569  0.00000000       0.000
   0.09583661  0.18316587  0.00000000       0.000
   0.09914143  0.18316604  0.00000000       0.000
   0.10244594  0.18316566  0.00000000       0.000
   0.10575076  0.18316583  0.00000000       0.000
   0.10575076  0.18316583  0.00000000       0.000
   0.10244594  0.17744171  0.00000000       0.000
   0.09914144  0.17171814  0.00000000       0.000
   0.09583662  0.16599402  0.00000000       0.000
   0.09253180  0.16026990  0.00000000       0.000
   0.08922729  0.15454633  0.00000000       0.000
   0.08592247  0.14882221  0.00000000       0.000
   0.08261765  0.14309809  0.00000000       0.000
   0.07931315  0.13737451  0.00000000       0.000
   0.07600833  0.13165039  0.00000000       0.000
   0.07270351  0.12592627  0.00000000       0.000
   0.06939901  0.12020270  0.00000000       0.000
   0.06609419  0.11447858  0.00000000       0.000
   0.06278937  0.10875446  0.00000000       0.000
   0.05948486  0.10303089  0.00000000       0.000
   0.05618004  0.09730676  0.00000000       0.000
   0.05287522  0.09158264  0.00000000       0.000
   0.04957072  0.08585907  0.00000000       0.000
   0.04626590  0.08013495  0.00000000       0.000
   0.04296140  0.07441138  0.00000000       0.000
   0.03965658  0.06868726  0.00000000       0.000
   0.03635175  0.06296314  0.00000000       0.000
   0.03304725  0.05723956  0.00000000       0.000
   0.02974243  0.05151544  0.00000000       0.000
   0.02643761  0.04579132  0.00000000       0.000
   0.02313311  0.04006775  0.00000000       0.000
   0.01982829  0.03434363  0.00000000       0.000
   0.01652347  0.02861951  0.00000000       0.000
   0.01321896  0.02289594  0.00000000       0.000
   0.00991414  0.01717181  0.00000000       0.000
   0.00660932  0.01144769  0.00000000       0.000
   0.00330482  0.00572412  0.00000000       0.000
   0.00000000  0.00000000  0.00000000       0.000
 
 k-points in reciprocal lattice and weights: Automatically generated mesh            
   0.00000000  0.00000000  0.00000000       0.016
   0.12500000  0.00000000  0.00000000       0.031
   0.25000000  0.00000000  0.00000000       0.031
   0.37500000  0.00000000  0.00000000       0.031
   0.50000000  0.00000000  0.00000000       0.016
   0.00000000  0.12500000  0.00000000       0.031
   0.12500000  0.12500000  0.00000000       0.031
   0.25000000  0.12500000  0.00000000       0.031
   0.37500000  0.12500000  0.00000000       0.031
   0.50000000  0.12500000  0.00000000       0.031
  -0.37500000  0.12500000  0.00000000       0.031
  -0.25000000  0.12500000  0.00000000       0.031
  -0.12500000  0.12500000  0.00000000       0.031
   0.00000000  0.25000000  0.00000000       0.031
   0.12500000  0.25000000  0.00000000       0.031
   0.25000000  0.25000000  0.00000000       0.031
   0.37500000  0.25000000  0.00000000       0.031
   0.50000000  0.25000000  0.00000000       0.031
  -0.37500000  0.25000000  0.00000000       0.031
  -0.25000000  0.25000000  0.00000000       0.031
  -0.12500000  0.25000000  0.00000000       0.031
   0.00000000  0.37500000  0.00000000       0.031
   0.12500000  0.37500000  0.00000000       0.031
   0.25000000  0.37500000  0.00000000       0.031
   0.37500000  0.37500000  0.00000000       0.031
   0.50000000  0.37500000  0.00000000       0.031
  -0.37500000  0.37500000  0.00000000       0.031
  -0.25000000  0.37500000  0.00000000       0.031
  -0.12500000  0.37500000  0.00000000       0.031
   0.00000000  0.50000000  0.00000000       0.016
   0.12500000  0.50000000  0.00000000       0.031
   0.25000000  0.50000000  0.00000000       0.031
   0.37500000  0.50000000  0.00000000       0.031
   0.50000000  0.50000000  0.00000000       0.016
   0.00000000  0.00000000  0.00000000       0.000
   0.00000000  0.01562500  0.00000000       0.000
   0.00000000  0.03125000  0.00000000       0.000
   0.00000000  0.04687500  0.00000000       0.000
   0.00000000  0.06250000  0.00000000       0.000
   0.00000000  0.07812500  0.00000000       0.000
   0.00000000  0.09375000  0.00000000       0.000
   0.00000000  0.10937500  0.00000000       0.000
   0.00000000  0.12500000  0.00000000       0.000
   0.00000000  0.14062500  0.00000000       0.000
   0.00000000  0.15625000  0.00000000       0.000
   0.00000000  0.17187500  0.00000000       0.000
   0.00000000  0.18750000  0.00000000       0.000
   0.00000000  0.20312500  0.00000000       0.000
   0.00000000  0.21875000  0.00000000       0.000
   0.00000000  0.23437500  0.00000000       0.000
   0.00000000  0.25000000  0.00000000       0.000
   0.00000000  0.26562500  0.00000000       0.000
   0.00000000  0.28125000  0.00000000       0.000
   0.00000000  0.29687500  0.00000000       0.000
   0.00000000  0.31250000  0.00000000       0.000
   0.00000000  0.32812500  0.00000000       0.000
   0.00000000  0.34375000  0.00000000       0.000
   0.00000000  0.35937500  0.00000000       0.000
   0.00000000  0.37500000  0.00000000       0.000
   0.00000000  0.39062500  0.00000000       0.000
   0.00000000  0.40625000  0.00000000       0.000
   0.00000000  0.42187500  0.00000000       0.000
   0.00000000  0.43750000  0.00000000       0.000
   0.00000000  0.45312500  0.00000000       0.000
   0.00000000  0.46875000  0.00000000       0.000
   0.00000000  0.48437500  0.00000000       0.000
   0.00000000  0.50000000  0.00000000       0.000
   0.00000000  0.50000000  0.00000000       0.000
   0.01041700  0.49479200  0.00000000       0.000
   0.02083300  0.48958300  0.00000000       0.000
   0.03125000  0.48437500  0.00000000       0.000
   0.04166700  0.47916700  0.00000000       0.000
   0.05208300  0.47395800  0.00000000       0.000
   0.06250000  0.46875000  0.00000000       0.000
   0.07291700  0.46354200  0.00000000       0.000
   0.08333300  0.45833300  0.00000000       0.000
   0.09375000  0.45312500  0.00000000       0.000
   0.10416700  0.44791700  0.00000000       0.000
   0.11458300  0.44270800  0.00000000       0.000
   0.12500000  0.43750000  0.00000000       0.000
   0.13541700  0.43229200  0.00000000       0.000
   0.14583300  0.42708300  0.00000000       0.000
   0.15625000  0.42187500  0.00000000       0.000
   0.16666600  0.41666600  0.00000000       0.000
   0.17708300  0.41145800  0.00000000       0.000
   0.18750000  0.40625000  0.00000000       0.000
   0.19791600  0.40104100  0.00000000       0.000
   0.20833300  0.39583300  0.00000000       0.000
   0.21875000  0.39062500  0.00000000       0.000
   0.22916600  0.38541600  0.00000000       0.000
   0.23958300  0.38020800  0.00000000       0.000
   0.25000000  0.37500000  0.00000000       0.000
   0.26041600  0.36979100  0.00000000       0.000
   0.27083300  0.36458300  0.00000000       0.000
   0.28125000  0.35937500  0.00000000       0.000
   0.29166600  0.35416600  0.00000000       0.000
   0.30208300  0.34895800  0.00000000       0.000
   0.31250000  0.34375000  0.00000000       0.000
   0.32291600  0.33854100  0.00000000       0.000
   0.33333300  0.33333300  0.00000000       0.000
   0.33333300  0.33333300  0.00000000       0.000
   0.32291600  0.32291600  0.00000000       0.000
   0.31250000  0.31250000  0.00000000       0.000
   0.30208300  0.30208300  0.00000000       0.000
   0.29166600  0.29166600  0.00000000       0.000
   0.28125000  0.28125000  0.00000000       0.000
   0.27083300  0.27083300  0.00000000       0.000
   0.26041600  0.26041600  0.00000000       0.000
   0.25000000  0.25000000  0.00000000       0.000
   0.23958300  0.23958300  0.00000000       0.000
   0.22916600  0.22916600  0.00000000       0.000
   0.21875000  0.21875000  0.00000000       0.000
   0.20833300  0.20833300  0.00000000       0.000
   0.19791600  0.19791600  0.00000000       0.000
   0.18750000  0.18750000  0.00000000       0.000
   0.17708300  0.17708300  0.00000000       0.000
   0.16666600  0.16666600  0.00000000       0.000
   0.15625000  0.15625000  0.00000000       0.000
   0.14583300  0.14583300  0.00000000       0.000
   0.13541700  0.13541700  0.00000000       0.000
   0.12500000  0.12500000  0.00000000       0.000
   0.11458300  0.11458300  0.00000000       0.000
   0.10416700  0.10416700  0.00000000       0.000
   0.09375000  0.09375000  0.00000000       0.000
   0.08333300  0.08333300  0.00000000       0.000
   0.07291700  0.07291700  0.00000000       0.000
   0.06250000  0.06250000  0.00000000       0.000
   0.05208300  0.05208300  0.00000000       0.000
   0.04166700  0.04166700  0.00000000       0.000
   0.03125000  0.03125000  0.00000000       0.000
   0.02083300  0.02083300  0.00000000       0.000
   0.01041700  0.01041700  0.00000000       0.000
   0.00000000  0.00000000  0.00000000       0.000
 
 position of ions in fractional coordinates (direct lattice) 
   0.33194879  0.66606391  0.29205643
   0.99799239  0.99912868  0.54155365
   0.66529474  0.33273592  0.22696778
   0.66527284  0.33272660  0.35705286
   0.33130143  0.66578490  0.60638416
   0.33135979  0.66581000  0.47688812
 
 position of ions in cartesian coordinates  (Angst):
  -0.00340851  1.81819398  7.06846672
   1.57108331  2.72738147 13.10689824
   1.57264960  0.90828981  5.49316494
   1.57259529  0.90826435  8.64153617
  -0.00500928  1.81743235 14.67595203
  -0.00486490  1.81750088 11.54183709
 


--------------------------------------------------------------------------------------------------------


 k-point  1 :   0.0000 0.0000 0.0000  plane waves:    5285
 k-point  2 :   0.1250 0.0000 0.0000  plane waves:    5290
 k-point  3 :   0.2500 0.0000 0.0000  plane waves:    5276
 k-point  4 :   0.3750 0.0000 0.0000  plane waves:    5312
 k-point  5 :   0.5000 0.0000 0.0000  plane waves:    5312
 k-point  6 :   0.0000 0.1250 0.0000  plane waves:    5290
 k-point  7 :   0.1250 0.1250 0.0000  plane waves:    5279
 k-point  8 :   0.2500 0.1250 0.0000  plane waves:    5286
 k-point  9 :   0.3750 0.1250 0.0000  plane waves:    5291
 k-point 10 :   0.5000 0.1250 0.0000  plane waves:    5291
 k-point 11 :  -0.3750 0.1250 0.0000  plane waves:    5286
 k-point 12 :  -0.2500 0.1250 0.0000  plane waves:    5279
 k-point 13 :  -0.1250 0.1250 0.0000  plane waves:    5290
 k-point 14 :   0.0000 0.2500 0.0000  plane waves:    5276
 k-point 15 :   0.1250 0.2500 0.0000  plane waves:    5286
 k-point 16 :   0.2500 0.2500 0.0000  plane waves:    5250
 k-point 17 :   0.3750 0.2500 0.0000  plane waves:    5268
 k-point 18 :   0.5000 0.2500 0.0000  plane waves:    5250
 k-point 19 :  -0.3750 0.2500 0.0000  plane waves:    5286
 k-point 20 :  -0.2500 0.2500 0.0000  plane waves:    5276
 k-point 21 :  -0.1250 0.2500 0.0000  plane waves:    5279
 k-point 22 :   0.0000 0.3750 0.0000  plane waves:    5312
 k-point 23 :   0.1250 0.3750 0.0000  plane waves:    5291
 k-point 24 :   0.2500 0.3750 0.0000  plane waves:    5268
 k-point 25 :   0.3750 0.3750 0.0000  plane waves:    5268
 k-point 26 :   0.5000 0.3750 0.0000  plane waves:    5291
 k-point 27 :  -0.3750 0.3750 0.0000  plane waves:    5312
 k-point 28 :  -0.2500 0.3750 0.0000  plane waves:    5286
 k-point 29 :  -0.1250 0.3750 0.0000  plane waves:    5286
 k-point 30 :   0.0000 0.5000 0.0000  plane waves:    5312
 k-point 31 :   0.1250 0.5000 0.0000  plane waves:    5291
 k-point 32 :   0.2500 0.5000 0.0000  plane waves:    5250
 k-point 33 :   0.3750 0.5000 0.0000  plane waves:    5291
 k-point 34 :   0.5000 0.5000 0.0000  plane waves:    5312
 k-point 35 :   0.0000 0.0000 0.0000  plane waves:    5285
 k-point 36 :   0.0000 0.0156 0.0000  plane waves:    5277
 k-point 37 :   0.0000 0.0312 0.0000  plane waves:    5266
 k-point 38 :   0.0000 0.0469 0.0000  plane waves:    5272
 k-point 39 :   0.0000 0.0625 0.0000  plane waves:    5286
 k-point 40 :   0.0000 0.0781 0.0000  plane waves:    5290
 k-point 41 :   0.0000 0.0938 0.0000  plane waves:    5288
 k-point 42 :   0.0000 0.1094 0.0000  plane waves:    5278
 k-point 43 :   0.0000 0.1250 0.0000  plane waves:    5290
 k-point 44 :   0.0000 0.1406 0.0000  plane waves:    5296
 k-point 45 :   0.0000 0.1562 0.0000  plane waves:    5296
 k-point 46 :   0.0000 0.1719 0.0000  plane waves:    5290
 k-point 47 :   0.0000 0.1875 0.0000  plane waves:    5296
 k-point 48 :   0.0000 0.2031 0.0000  plane waves:    5288
 k-point 49 :   0.0000 0.2188 0.0000  plane waves:    5278
 k-point 50 :   0.0000 0.2344 0.0000  plane waves:    5282
 k-point 51 :   0.0000 0.2500 0.0000  plane waves:    5276
 k-point 52 :   0.0000 0.2656 0.0000  plane waves:    5290
 k-point 53 :   0.0000 0.2812 0.0000  plane waves:    5296
 k-point 54 :   0.0000 0.2969 0.0000  plane waves:    5298
 k-point 55 :   0.0000 0.3125 0.0000  plane waves:    5296
 k-point 56 :   0.0000 0.3281 0.0000  plane waves:    5300
 k-point 57 :   0.0000 0.3438 0.0000  plane waves:    5304
 k-point 58 :   0.0000 0.3594 0.0000  plane waves:    5306
 k-point 59 :   0.0000 0.3750 0.0000  plane waves:    5312
 k-point 60 :   0.0000 0.3906 0.0000  plane waves:    5308
 k-point 61 :   0.0000 0.4062 0.0000  plane waves:    5290
 k-point 62 :   0.0000 0.4219 0.0000  plane waves:    5296
 k-point 63 :   0.0000 0.4375 0.0000  plane waves:    5298
 k-point 64 :   0.0000 0.4531 0.0000  plane waves:    5310
 k-point 65 :   0.0000 0.4688 0.0000  plane waves:    5306
 k-point 66 :   0.0000 0.4844 0.0000  plane waves:    5318
 k-point 67 :   0.0000 0.5000 0.0000  plane waves:    5312
 k-point 68 :   0.0000 0.5000 0.0000  plane waves:    5312
 k-point 69 :   0.0104 0.4948 0.0000  plane waves:    5316
 k-point 70 :   0.0208 0.4896 0.0000  plane waves:    5326
 k-point 71 :   0.0312 0.4844 0.0000  plane waves:    5334
 k-point 72 :   0.0417 0.4792 0.0000  plane waves:    5326
 k-point 73 :   0.0521 0.4740 0.0000  plane waves:    5318
 k-point 74 :   0.0625 0.4688 0.0000  plane waves:    5304
 k-point 75 :   0.0729 0.4635 0.0000  plane waves:    5300
 k-point 76 :   0.0833 0.4583 0.0000  plane waves:    5294
 k-point 77 :   0.0938 0.4531 0.0000  plane waves:    5292
 k-point 78 :   0.1042 0.4479 0.0000  plane waves:    5290
 k-point 79 :   0.1146 0.4427 0.0000  plane waves:    5298
 k-point 80 :   0.1250 0.4375 0.0000  plane waves:    5288
 k-point 81 :   0.1354 0.4323 0.0000  plane waves:    5286
 k-point 82 :   0.1458 0.4271 0.0000  plane waves:    5290
 k-point 83 :   0.1562 0.4219 0.0000  plane waves:    5290
 k-point 84 :   0.1667 0.4167 0.0000  plane waves:    5290
 k-point 85 :   0.1771 0.4115 0.0000  plane waves:    5290
 k-point 86 :   0.1875 0.4062 0.0000  plane waves:    5286
 k-point 87 :   0.1979 0.4010 0.0000  plane waves:    5286
 k-point 88 :   0.2083 0.3958 0.0000  plane waves:    5278
 k-point 89 :   0.2188 0.3906 0.0000  plane waves:    5270
 k-point 90 :   0.2292 0.3854 0.0000  plane waves:    5278
 k-point 91 :   0.2396 0.3802 0.0000  plane waves:    5270
 k-point 92 :   0.2500 0.3750 0.0000  plane waves:    5268
 k-point 93 :   0.2604 0.3698 0.0000  plane waves:    5260
 k-point 94 :   0.2708 0.3646 0.0000  plane waves:    5256
 k-point 95 :   0.2812 0.3594 0.0000  plane waves:    5248
 k-point 96 :   0.2917 0.3542 0.0000  plane waves:    5264
 k-point 97 :   0.3021 0.3490 0.0000  plane waves:    5268
 k-point 98 :   0.3125 0.3438 0.0000  plane waves:    5260
 k-point 99 :   0.3229 0.3385 0.0000  plane waves:    5272
 k-point ** :   0.3333 0.3333 0.0000  plane waves:    5250
 k-point ** :   0.3333 0.3333 0.0000  plane waves:    5250
 k-point ** :   0.3229 0.3229 0.0000  plane waves:    5262
 k-point ** :   0.3125 0.3125 0.0000  plane waves:    5262
 k-point ** :   0.3021 0.3021 0.0000  plane waves:    5254
 k-point ** :   0.2917 0.2917 0.0000  plane waves:    5250
 k-point ** :   0.2812 0.2812 0.0000  plane waves:    5260
 k-point ** :   0.2708 0.2708 0.0000  plane waves:    5250
 k-point ** :   0.2604 0.2604 0.0000  plane waves:    5242
 k-point ** :   0.2500 0.2500 0.0000  plane waves:    5250
 k-point ** :   0.2396 0.2396 0.0000  plane waves:    5260
 k-point ** :   0.2292 0.2292 0.0000  plane waves:    5274
 k-point ** :   0.2188 0.2188 0.0000  plane waves:    5284
 k-point ** :   0.2083 0.2083 0.0000  plane waves:    5294
 k-point ** :   0.1979 0.1979 0.0000  plane waves:    5304
 k-point ** :   0.1875 0.1875 0.0000  plane waves:    5292
 k-point ** :   0.1771 0.1771 0.0000  plane waves:    5280
 k-point ** :   0.1667 0.1667 0.0000  plane waves:    5276
 k-point ** :   0.1562 0.1562 0.0000  plane waves:    5276
 k-point ** :   0.1458 0.1458 0.0000  plane waves:    5274
 k-point ** :   0.1354 0.1354 0.0000  plane waves:    5278
 k-point ** :   0.1250 0.1250 0.0000  plane waves:    5279
 k-point ** :   0.1146 0.1146 0.0000  plane waves:    5285
 k-point ** :   0.1042 0.1042 0.0000  plane waves:    5283
 k-point ** :   0.0938 0.0938 0.0000  plane waves:    5283
 k-point ** :   0.0833 0.0833 0.0000  plane waves:    5285
 k-point ** :   0.0729 0.0729 0.0000  plane waves:    5297
 k-point ** :   0.0625 0.0625 0.0000  plane waves:    5285
 k-point ** :   0.0521 0.0521 0.0000  plane waves:    5287
 k-point ** :   0.0417 0.0417 0.0000  plane waves:    5277
 k-point ** :   0.0312 0.0312 0.0000  plane waves:    5281
 k-point ** :   0.0208 0.0208 0.0000  plane waves:    5271
 k-point ** :   0.0104 0.0104 0.0000  plane waves:    5277
 k-point ** :   0.0000 0.0000 0.0000  plane waves:    5285

 maximum and minimum number of plane-waves per node :      5334     5242

 maximum number of plane-waves:      5334
 maximum index in each direction: 
   IXMAX=    6   IYMAX=    5   IZMAX=   44
   IXMIN=   -6   IYMIN=   -6   IZMIN=  -44


 serial   3D FFT for wavefunctions
 parallel 3D FFT for charge:
    minimum data exchange during FFTs selected (reduces bandwidth)


 FFT grid for exact exchange (Hartree Fock) 
  NGX = 18; NGY = 18; NGZ =140

 
 Radii for the augmentation spheres in the non-local exchange
 for species   1 augmentation radius   1.478 (default was   1.182)
       energy cutoff for augmentation   2000.0
 for species   2 augmentation radius   1.537 (default was   1.230)
       energy cutoff for augmentation   2000.0
 for species   3 augmentation radius   1.212 (default was   0.970)
       energy cutoff for augmentation   2000.0
 Maximum index for augmentation-charges in exchange         3315
  SETUP_FOCK is finished

 total amount of memory used by VASP MPI-rank0   383155. kBytes
=======================================================================

   base      :      30000. kBytes
   nonl-proj :     309399. kBytes
   fftplans  :       1034. kBytes
   grid      :       5266. kBytes
   one-center:         93. kBytes
   HF        :        194. kBytes
   nonlr-proj:       2237. kBytes
   wavefun   :      34932. kBytes
 
     INWAV:  cpu time    5.0797: real time    5.0819
 initial charge density was supplied:
 number of electron      36.0000000 magnetization 
 keeping initial charge density in first step


--------------------------------------------------------------------------------------------------------


 Maximum index for augmentation-charges         1080 (set IRDMAX)


--------------------------------------------------------------------------------------------------------


 First call to EWALD:  gamma=   0.299
 Maximum number of real-space cells 5x 5x 1
 Maximum number of reciprocal cells 2x 2x10

    FEWALD:  cpu time    0.0015: real time    0.0015


--------------------------------------- Iteration      1(   1)  ---------------------------------------


    POTLOK:  cpu time    0.0727: real time    0.0728
    SETDIJ:  cpu time    0.1518: real time    0.1518
    TRIAL :  cpu time  950.5458: real time  951.5060
    CORREC:  cpu time    0.0009: real time    0.0009
    --------------------------------------------
      LOOP:  cpu time  950.7751: real time  951.7572

 eigenvalue-minimisations  :     0
 total energy-change (2. order) :-0.5427161E+02  (-0.2767062E-04)
 number of electron      36.0000000 magnetization 
 augmentation part       36.0000000 magnetization 

 Free energy of the ion-electron system (eV)
  ---------------------------------------------------
  alpha Z        PSCENC =        58.17251497
  Ewald energy   TEWEN  =      6084.01556471
  -Hartree energ DENC   =     -7607.73383039
  -exchange      EXHF   =        60.36546443
  -V(xc)+E(xc)   XCENC  =       -47.77496052
  PAW double counting   =      4696.25998645    -4584.61672145
  entropy T*S    EENTRO =        -0.00000000
  eigenvalues    EBANDS =      -229.42196235
  atomic energy  EATOM  =      1516.46233915
  ---------------------------------------------------
  free energy    TOTEN  =       -54.27160501 eV

  energy without entropy =      -54.27160501  energy(sigma->0) =      -54.27160501
  exchange ACFDT corr.  =        -0.00000000  see jH, gK, PRB 81, 115126


--------------------------------------------------------------------------------------------------------




--------------------------------------- Iteration      1(   2)  ---------------------------------------


    TRIAL :  cpu time  957.2417: real time  958.2247
    CORREC:  cpu time    0.0008: real time    0.0008
    --------------------------------------------
      LOOP:  cpu time  957.2436: real time  958.2444

 eigenvalue-minimisations  :     0
 total energy-change (2. order) :-0.2418750E-04  (-0.2434358E-04)
 number of electron      36.0000000 magnetization 
 augmentation part       36.0000000 magnetization 

 Free energy of the ion-electron system (eV)
  ---------------------------------------------------
  alpha Z        PSCENC =        58.17251497
  Ewald energy   TEWEN  =      6084.01556471
  -Hartree energ DENC   =     -7607.73383039
  -exchange      EXHF   =        60.36595650
  -V(xc)+E(xc)   XCENC  =       -47.77496052
  PAW double counting   =      4696.25998645    -4584.61672145
  entropy T*S    EENTRO =        -0.00000000
  eigenvalues    EBANDS =      -229.42247861
  atomic energy  EATOM  =      1516.46233915
  ---------------------------------------------------
  free energy    TOTEN  =       -54.27162919 eV

  energy without entropy =      -54.27162919  energy(sigma->0) =      -54.27162919
  exchange ACFDT corr.  =        -0.00000000  see jH, gK, PRB 81, 115126


--------------------------------------------------------------------------------------------------------




--------------------------------------- Iteration      1(   3)  ---------------------------------------


    TRIAL :  cpu time  958.4122: real time  959.3850
    CORREC:  cpu time    0.0008: real time    0.0008
    --------------------------------------------
      LOOP:  cpu time  958.4156: real time  959.4038

 eigenvalue-minimisations  :     0
 total energy-change (2. order) :-0.2095876E-04  (-0.1665404E-04)
 number of electron      36.0000000 magnetization 
 augmentation part       36.0000000 magnetization 

 Free energy of the ion-electron system (eV)
  ---------------------------------------------------
  alpha Z        PSCENC =        58.17251497
  Ewald energy   TEWEN  =      6084.01556471
  -Hartree energ DENC   =     -7607.73383039
  -exchange      EXHF   =        60.36657574
  -V(xc)+E(xc)   XCENC  =       -47.77496052
  PAW double counting   =      4696.25998645    -4584.61672145
  entropy T*S    EENTRO =        -0.00000000
  eigenvalues    EBANDS =      -229.42311880
  atomic energy  EATOM  =      1516.46233915
  ---------------------------------------------------
  free energy    TOTEN  =       -54.27165015 eV

  energy without entropy =      -54.27165015  energy(sigma->0) =      -54.27165015
  exchange ACFDT corr.  =        -0.00000000  see jH, gK, PRB 81, 115126


--------------------------------------------------------------------------------------------------------




--------------------------------------- Iteration      1(   4)  ---------------------------------------


    TRIAL :  cpu time  957.4103: real time  958.3798
    CORREC:  cpu time    0.0008: real time    0.0008
    --------------------------------------------
      LOOP:  cpu time  957.4119: real time  958.3996

 eigenvalue-minimisations  :     0
 total energy-change (2. order) :-0.1467417E-04  (-0.1117377E-04)
 number of electron      36.0000000 magnetization 
 augmentation part       36.0000000 magnetization 

 Free energy of the ion-electron system (eV)
  ---------------------------------------------------
  alpha Z        PSCENC =        58.17251497
  Ewald energy   TEWEN  =      6084.01556471
  -Hartree energ DENC   =     -7607.73383039
  -exchange      EXHF   =        60.36717922
  -V(xc)+E(xc)   XCENC  =       -47.77496052
  PAW double counting   =      4696.25998645    -4584.61672145
  entropy T*S    EENTRO =        -0.00000000
  eigenvalues    EBANDS =      -229.42373696
  atomic energy  EATOM  =      1516.46233915
  ---------------------------------------------------
  free energy    TOTEN  =       -54.27166483 eV

  energy without entropy =      -54.27166483  energy(sigma->0) =      -54.27166483
  exchange ACFDT corr.  =        -0.00000000  see jH, gK, PRB 81, 115126


--------------------------------------------------------------------------------------------------------




--------------------------------------- Iteration      1(   5)  ---------------------------------------


    TRIAL :  cpu time  958.1722: real time  959.1319
    CORREC:  cpu time    0.0008: real time    0.0008
    --------------------------------------------
      LOOP:  cpu time  958.1746: real time  959.1523

 eigenvalue-minimisations  :     0
 total energy-change (2. order) :-0.9897410E-05  (-0.7163195E-05)
 number of electron      36.0000000 magnetization 
 augmentation part       36.0000000 magnetization 

 Free energy of the ion-electron system (eV)
  ---------------------------------------------------
  alpha Z        PSCENC =        58.17251497
  Ewald energy   TEWEN  =      6084.01556471
  -Hartree energ DENC   =     -7607.73383039
  -exchange      EXHF   =        60.36770817
  -V(xc)+E(xc)   XCENC  =       -47.77496052
  PAW double counting   =      4696.25998645    -4584.61672145
  entropy T*S    EENTRO =        -0.00000000
  eigenvalues    EBANDS =      -229.42427581
  atomic energy  EATOM  =      1516.46233915
  ---------------------------------------------------
  free energy    TOTEN  =       -54.27167472 eV

  energy without entropy =      -54.27167472  energy(sigma->0) =      -54.27167472
  exchange ACFDT corr.  =        -0.00000000  see jH, gK, PRB 81, 115126


--------------------------------------------------------------------------------------------------------




--------------------------------------- Iteration      1(   6)  ---------------------------------------


    TRIAL :  cpu time  958.6257: real time  959.4955
    CORREC:  cpu time    0.0008: real time    0.0008
    --------------------------------------------
      LOOP:  cpu time  958.6278: real time  959.5174

 eigenvalue-minimisations  :     0
 total energy-change (2. order) :-0.6323893E-05  (-0.4404247E-05)
 number of electron      36.0000000 magnetization 
 augmentation part       36.0000000 magnetization 

 Free energy of the ion-electron system (eV)
  ---------------------------------------------------
  alpha Z        PSCENC =        58.17251497
  Ewald energy   TEWEN  =      6084.01556471
  -Hartree energ DENC   =     -7607.73383039
  -exchange      EXHF   =        60.36814969
  -V(xc)+E(xc)   XCENC  =       -47.77496052
  PAW double counting   =      4696.25998645    -4584.61672145
  entropy T*S    EENTRO =        -0.00000000
  eigenvalues    EBANDS =      -229.42472365
  atomic energy  EATOM  =      1516.46233915
  ---------------------------------------------------
  free energy    TOTEN  =       -54.27168105 eV

  energy without entropy =      -54.27168105  energy(sigma->0) =      -54.27168105
  exchange ACFDT corr.  =        -0.00000000  see jH, gK, PRB 81, 115126


--------------------------------------------------------------------------------------------------------




--------------------------------------- Iteration      1(   7)  ---------------------------------------


    TRIAL :  cpu time  957.0218: real time  957.9601
    CORREC:  cpu time    0.0008: real time    0.0008
    --------------------------------------------
      LOOP:  cpu time  957.0250: real time  957.9856

 eigenvalue-minimisations  :     0
 total energy-change (2. order) :-0.3883006E-05  (-0.2659134E-05)
 number of electron      36.0000000 magnetization 
 augmentation part       36.0000000 magnetization 

 Free energy of the ion-electron system (eV)
  ---------------------------------------------------
  alpha Z        PSCENC =        58.17251497
  Ewald energy   TEWEN  =      6084.01556471
  -Hartree energ DENC   =     -7607.73383039
  -exchange      EXHF   =        60.36851013
  -V(xc)+E(xc)   XCENC  =       -47.77496052
  PAW double counting   =      4696.25998645    -4584.61672145
  entropy T*S    EENTRO =        -0.00000000
  eigenvalues    EBANDS =      -229.42508797
  atomic energy  EATOM  =      1516.46233915
  ---------------------------------------------------
  free energy    TOTEN  =       -54.27168493 eV

  energy without entropy =      -54.27168493  energy(sigma->0) =      -54.27168493
  exchange ACFDT corr.  =        -0.00000000  see jH, gK, PRB 81, 115126


--------------------------------------------------------------------------------------------------------




--------------------------------------- Iteration      1(   8)  ---------------------------------------


    TRIAL :  cpu time  960.1973: real time  961.1672
    CORREC:  cpu time    0.0008: real time    0.0008
    --------------------------------------------
      LOOP:  cpu time  960.2001: real time  961.1913

 eigenvalue-minimisations  :     0
 total energy-change (2. order) :-0.2345872E-05  (-0.1597288E-05)
 number of electron      36.0000000 magnetization 
 augmentation part       36.0000000 magnetization 

 Free energy of the ion-electron system (eV)
  ---------------------------------------------------
  alpha Z        PSCENC =        58.17251497
  Ewald energy   TEWEN  =      6084.01556471
  -Hartree energ DENC   =     -7607.73383039
  -exchange      EXHF   =        60.36880072
  -V(xc)+E(xc)   XCENC  =       -47.77496052
  PAW double counting   =      4696.25998645    -4584.61672145
  entropy T*S    EENTRO =        -0.00000000
  eigenvalues    EBANDS =      -229.42538091
  atomic energy  EATOM  =      1516.46233915
  ---------------------------------------------------
  free energy    TOTEN  =       -54.27168728 eV

  energy without entropy =      -54.27168728  energy(sigma->0) =      -54.27168728
  exchange ACFDT corr.  =        -0.00000000  see jH, gK, PRB 81, 115126


--------------------------------------------------------------------------------------------------------




--------------------------------------- Iteration      1(   9)  ---------------------------------------


    TRIAL :  cpu time  961.3393: real time  962.3356
    CORREC:  cpu time    0.0008: real time    0.0008
    --------------------------------------------
      LOOP:  cpu time  961.3411: real time  962.3606

 eigenvalue-minimisations  :     0
 total energy-change (2. order) :-0.1410126E-05  (-0.9580627E-06)
 number of electron      36.0000000 magnetization 
 augmentation part       36.0000000 magnetization 

 Free energy of the ion-electron system (eV)
  ---------------------------------------------------
  alpha Z        PSCENC =        58.17251497
  Ewald energy   TEWEN  =      6084.01556471
  -Hartree energ DENC   =     -7607.73383039
  -exchange      EXHF   =        60.36903355
  -V(xc)+E(xc)   XCENC  =       -47.77496052
  PAW double counting   =      4696.25998645    -4584.61672145
  entropy T*S    EENTRO =        -0.00000000
  eigenvalues    EBANDS =      -229.42561515
  atomic energy  EATOM  =      1516.46233915
  ---------------------------------------------------
  free energy    TOTEN  =       -54.27168869 eV

  energy without entropy =      -54.27168869  energy(sigma->0) =      -54.27168869
  exchange ACFDT corr.  =        -0.00000000  see jH, gK, PRB 81, 115126


--------------------------------------------------------------------------------------------------------




--------------------------------------- Iteration      1(  10)  ---------------------------------------


    TRIAL :  cpu time  959.9613: real time  960.9416
    CORREC:  cpu time    0.0008: real time    0.0008
    EDDIAG:  cpu time  961.1996: real time  961.8882
    --------------------------------------------
      LOOP:  cpu time 1921.1626: real time 1922.8534

 eigenvalue-minimisations  :     0
 total energy-change (2. order) :-0.8467018E-06  (-0.5758120E-06)
 number of electron      36.0000000 magnetization 
 augmentation part       36.0000000 magnetization 

 Free energy of the ion-electron system (eV)
  ---------------------------------------------------
  alpha Z        PSCENC =        58.17251497
  Ewald energy   TEWEN  =      6084.01556471
  -Hartree energ DENC   =     -7607.73383039
  -exchange      EXHF   =        60.36936802
  -V(xc)+E(xc)   XCENC  =       -47.77496052
  PAW double counting   =      4696.25998645    -4584.61672145
  entropy T*S    EENTRO =        -0.00000000
  eigenvalues    EBANDS =      -229.42580205
  atomic energy  EATOM  =      1516.46233915
  ---------------------------------------------------
  free energy    TOTEN  =       -54.27168953 eV

  energy without entropy =      -54.27168953  energy(sigma->0) =      -54.27168953
  exchange ACFDT corr.  =        -0.00000000  see jH, gK, PRB 81, 115126


--------------------------------------------------------------------------------------------------------


  average scaling for gradient   0.8963


 average (electrostatic) potential at core
  the test charge radii are     1.1823  1.2296  0.9698
  (the norm of the test charge is              1.0000)
       1 -41.5355       2 -39.2821       3 -87.9344       4 -87.9556       5 -87.9026
       6 -87.9245
 
 
 
 E-fermi :   0.2279     XC(G=0):  -4.8925     alpha+bet : -6.1130


 k-point     1 :       0.0000    0.0000    0.0000
  band No.  band energies     occupation 
      1     -16.9227      2.00000
      2     -16.3473      2.00000
      3     -15.2656      2.00000
      4     -14.9171      2.00000
      5      -7.8498      2.00000
      6      -6.9019      2.00000
      7      -3.6277      2.00000
      8      -3.6277      2.00000
      9      -3.5217      2.00000
     10      -3.5217      2.00000
     11      -3.4667      2.00000
     12      -2.1603      2.00000
     13      -2.1601      2.00000
     14      -2.1572      2.00000
     15      -2.1337      2.00000
     16      -2.1337      2.00000
     17      -0.8663      2.00000
     18       0.0086      2.00000
     19       3.0531      0.00000
     20       3.0532      0.00000
     21       3.2589      0.00000
     22       3.2594      0.00000
     23       3.3451      0.00000
     24       3.3453      0.00000
     25       3.4593      0.00000
     26       3.4595      0.00000
     27       5.3829      0.00000
     28       5.5613      0.00000
     29       6.1771      0.00000
     30       6.6405      0.00000
     31       7.0502      0.00000
     32       7.9300      0.00000
     33       9.3562      0.00000
     34       9.4591      0.00000
     35       9.8014      0.00000
     36      10.9999      0.00000
     37      11.2862      0.00000
     38      11.4590      0.00000
     39      11.4593      0.00000
     40      11.7311      0.00000
     41      11.7315      0.00000
     42      13.2384      0.00000
     43      13.5283      0.00000
     44      13.7674      0.00000
     45      14.1220      0.00000
     46      14.2841      0.00000
     47      15.0220      0.00000
     48      15.6173      0.00000

 k-point     2 :       0.1250    0.0000    0.0000
  band No.  band energies     occupation 
      1     -16.6448      2.00000
      2     -16.0976      2.00000
      3     -15.1380      2.00000
      4     -14.8040      2.00000
      5      -7.5182      2.00000
      6      -6.6091      2.00000
      7      -4.3221      2.00000
      8      -4.0660      2.00000
      9      -3.9615      2.00000
     10      -3.3426      2.00000
     11      -3.2440      2.00000
     12      -3.2400      2.00000
     13      -2.5891      2.00000
     14      -2.5356      2.00000
     15      -2.1166      2.00000
     16      -1.6539      2.00000
     17      -0.9529      2.00000
     18      -0.4020      2.00000
     19       2.6900      0.00000
     20       2.8378      0.00000
     21       2.9630      0.00000
     22       3.0070      0.00000
     23       3.1981      0.00000
     24       3.2581      0.00000
     25       3.4933      0.00000
     26       3.8384      0.00000
     27       5.7464      0.00000
     28       5.9151      0.00000
     29       6.8759      0.00000
[...]
      9      -3.6513      2.00000
     10      -3.5038      2.00000
     11      -3.4061      2.00000
     12      -2.7199      2.00000
     13      -2.2904      2.00000
     14      -2.2654      2.00000
     15      -1.9814      2.00000
     16      -1.6587      2.00000
     17      -0.8376      2.00000
     18      -0.0673      0.00017
     19       3.0489      0.00000
     20       3.0912      0.00000
     21       3.1444      0.00000
     22       3.2153      0.00000
     23       3.2517      0.00000
     24       3.3395      0.00000
     25       3.3515      0.00000
     26       3.6425      0.00000
     27       5.7319      0.00000
     28       5.8943      0.00000
     29       7.4420      0.00000
     30       8.1197      0.00000
     31       9.0825      0.00000
     32      10.0653      0.00000
     33      11.1958      0.00000
     34      11.5058      0.00000
     35      11.9566      0.00000
     36      12.2384      0.00000
     37      12.3966      0.00000
     38      13.1254      0.00000
     39      15.1386      0.00000
     40      15.3047      0.00000
     41      15.8920      0.00000
     42      18.1061      0.00000
     43      19.9561      0.00000
     44      21.2974      0.00000
     45      22.6747      0.00000
     46      23.1843      0.00000
     47      23.3952      0.00000
     48      23.9590      0.00000

 k-point   130 :       0.0312    0.0312    0.0000
  band No.  band energies     occupation 
      1     -16.8679      2.00000
      2     -16.2974      2.00000
      3     -15.2401      2.00000
      4     -14.8946      2.00000
      5      -7.7802      2.00000
      6      -6.8361      2.00000
      7      -3.7512      2.00000
      8      -3.6151      2.00000
      9      -3.5727      2.00000
     10      -3.5475      2.00000
     11      -3.4470      2.00000
     12      -2.5621      2.00000
     13      -2.2133      2.00000
     14      -2.1974      2.00000
     15      -1.9645      2.00000
     16      -1.7128      2.00000
     17      -0.8254      2.00000
     18       0.0024      0.00000
     19       3.0703      0.00000
     20       3.0967      0.00000
     21       3.1666      0.00000
     22       3.2843      0.00000
     23       3.3147      0.00000
     24       3.3630      0.00000
     25       3.3836      0.00000
     26       3.6331      0.00000
     27       5.6264      0.00000
     28       5.8166      0.00000
     29       7.2148      0.00000
     30       7.8759      0.00000
     31       9.1124      0.00000
     32       9.7168      0.00000
     33      11.0901      0.00000
     34      11.3640      0.00000
     35      11.4705      0.00000
     36      12.0894      0.00000
     37      13.1109      0.00000
     38      13.2934      0.00000
     39      15.1128      0.00000
     40      15.2092      0.00000
     41      15.6351      0.00000
     42      18.4170      0.00000
     43      20.4640      0.00000
     44      21.0370      0.00000
     45      23.5526      0.00000
     46      23.6114      0.00000
     47      23.9762      0.00000
     48      24.4991      0.00000

 k-point   131 :       0.0208    0.0208    0.0000
  band No.  band energies     occupation 
      1     -16.8974      2.00000
      2     -16.3238      2.00000
      3     -15.2535      2.00000
      4     -14.9064      2.00000
      5      -7.8160      2.00000
      6      -6.8682      2.00000
      7      -3.6649      2.00000
      8      -3.5792      2.00000
      9      -3.5490      2.00000
     10      -3.5107      2.00000
     11      -3.4766      2.00000
     12      -2.4085      2.00000
     13      -2.1611      2.00000
     14      -2.1544      2.00000
     15      -1.9389      2.00000
     16      -1.7709      2.00000
     17      -0.8186      2.00000
     18       0.0542      0.00000
     19       3.0562      0.00000
     20       3.0698      0.00000
     21       3.2302      0.00000
     22       3.3115      0.00000
     23       3.3510      0.00000
     24       3.4045      0.00000
     25       3.4332      0.00000
     26       3.6648      0.00000
     27       5.5062      0.00000
     28       5.7658      0.00000
     29       6.9866      0.00000
     30       7.6771      0.00000
     31       9.2259      0.00000
     32       9.3241      0.00000
     33      10.9656      0.00000
     34      11.0483      0.00000
     35      11.2861      0.00000
     36      12.0493      0.00000
     37      13.2807      0.00000
     38      14.2558      0.00000
     39      14.4097      0.00000
     40      15.0035      0.00000
     41      15.3986      0.00000
     42      18.7321      0.00000
     43      20.7407      0.00000
     44      21.0544      0.00000
     45      24.0753      0.00000
     46      24.5517      0.00000
     47      24.5656      0.00000
     48      25.0577      0.00000

 k-point   132 :       0.0104    0.0104    0.0000
  band No.  band energies     occupation 
      1     -16.9152      2.00000
      2     -16.3398      2.00000
      3     -15.2617      2.00000
      4     -14.9137      2.00000
      5      -7.8378      2.00000
      6      -6.8874      2.00000
      7      -3.6129      2.00000
      8      -3.5984      2.00000
      9      -3.5080      2.00000
     10      -3.4956      2.00000
     11      -3.4673      2.00000
     12      -2.2700      2.00000
     13      -2.1378      2.00000
     14      -2.1319      2.00000
     15      -1.9201      2.00000
     16      -1.8355      2.00000
     17      -0.8141      2.00000
     18       0.0886      0.00000
     19       3.0310      0.00000
     20       3.0639      0.00000
     21       3.2676      0.00000
     22       3.3300      0.00000
     23       3.3449      0.00000
     24       3.4663      0.00000
     25       3.4680      0.00000
     26       3.6904      0.00000
     27       5.4038      0.00000
     28       5.7302      0.00000
     29       6.8113      0.00000
     30       7.5360      0.00000
     31       9.0462      0.00000
     32       9.3046      0.00000
     33      10.6109      0.00000
     34      10.8406      0.00000
     35      11.4879      0.00000
     36      11.8595      0.00000
     37      13.3717      0.00000
     38      13.8059      0.00000
     39      14.6356      0.00000
     40      15.0050      0.00000
     41      15.0328      0.00000
     42      18.8897      0.00000
     43      20.0748      0.00000
     44      21.5856      0.00000
     45      24.6465      0.00000
     46      25.1052      0.00000
     47      25.4393      0.00000
     48      25.5804      0.00000

 k-point   133 :       0.0000    0.0000    0.0000
  band No.  band energies     occupation 
      1     -16.9210      2.00000
      2     -16.3451      2.00000
      3     -15.2643      2.00000
      4     -14.9160      2.00000
      5      -7.8448      2.00000
      6      -6.8935      2.00000
      7      -3.6067      2.00000
      8      -3.5893      2.00000
      9      -3.5012      2.00000
     10      -3.4874      2.00000
     11      -3.4465      2.00000
     12      -2.1489      2.00000
     13      -2.1447      2.00000
     14      -2.1250      2.00000
     15      -1.9008      2.00000
     16      -1.8695      2.00000
     17      -0.8109      2.00000
     18       0.1288      0.00000
     19       3.0203      0.00000
     20       3.0619      0.00000
     21       3.2803      0.00000
     22       3.3366      0.00000
     23       3.3469      0.00000
     24       3.4927      0.00000
     25       3.4973      0.00000
     26       3.9181      0.00000
     27       5.1206      0.00000
     28       5.7207      0.00000
     29       6.7222      0.00000
     30       7.5159      0.00000
     31       8.8708      0.00000
     32       9.4618      0.00000
     33      10.4013      0.00000
     34      10.9840      0.00000
     35      11.6535      0.00000
     36      11.6807      0.00000
     37      13.2744      0.00000
     38      13.8159      0.00000
     39      14.4068      0.00000
     40      15.0272      0.00000
     41      15.3210      0.00000
     42      19.0208      0.00000
     43      19.8711      0.00000
     44      22.0043      0.00000
     45      25.4118      0.00000
     46      25.6635      0.00000
     47      26.1663      0.00000
     48      26.1931      0.00000


--------------------------------------------------------------------------------------------------------


 soft charge-density along one line, spin component           1
         0         1         2         3         4         5         6         7         8         9
 total charge-density along one line
 
 pseudopotential strength for first ion, spin component:           1
 -8.751   0.000   0.000   0.000   0.000 -10.023   0.000   0.000
  0.000  -8.739   0.000  -0.000   0.000   0.000 -10.008   0.000
  0.000   0.000  -8.729   0.000   0.000   0.000   0.000  -9.996
  0.000  -0.000   0.000  -8.739   0.000   0.000  -0.000   0.000
  0.000   0.000   0.000   0.000  -8.751   0.000   0.000   0.000
-10.023   0.000   0.000   0.000   0.000 -11.463   0.000   0.000
  0.000 -10.008   0.000  -0.000   0.000   0.000 -11.446   0.000
  0.000   0.000  -9.996   0.000   0.000   0.000   0.000 -11.431
  0.000  -0.000   0.000 -10.008   0.000   0.000  -0.000   0.000
  0.000   0.000   0.000   0.000 -10.023   0.000   0.000   0.000
  0.000  -0.000  -0.007  -0.000   0.000   0.000  -0.000  -0.008
  0.000  -0.000  -0.012  -0.000   0.000   0.000  -0.000  -0.014
  0.000   0.001  -0.000  -0.000  -0.005   0.000   0.001  -0.000
 -0.000   0.000   0.001   0.000  -0.000  -0.000   0.000   0.001
 -0.005  -0.000  -0.000   0.001   0.000  -0.006  -0.000  -0.000
  0.000   0.001  -0.000  -0.000  -0.006   0.000   0.001  -0.000
 -0.000   0.000   0.001   0.000  -0.000  -0.000   0.000   0.001
 -0.006  -0.000  -0.000   0.001   0.000  -0.007  -0.000  -0.000
 total augmentation occupancy for first ion, spin component:           1
  1.000   0.000   0.000   0.000   0.000   0.000   0.000   0.000   0.000   0.000   0.000   0.000   0.000   0.000   0.000   0.000
  0.000   1.000   0.000   0.000   0.000   0.000   0.000   0.000   0.000   0.000   0.000   0.000   0.000   0.000   0.000   0.000
  0.000   0.000   1.000   0.000   0.000   0.000   0.000   0.000   0.000   0.000   0.000   0.000   0.000   0.000   0.000   0.000
  0.000   0.000   0.000   1.000   0.000   0.000   0.000   0.000   0.000   0.000   0.000   0.000   0.000   0.000   0.000   0.000
  0.000   0.000   0.000   0.000   1.000   0.000   0.000   0.000   0.000   0.000   0.000   0.000   0.000   0.000   0.000   0.000
  0.000   0.000   0.000   0.000   0.000   0.000   0.000   0.000   0.000   0.000   0.000   0.000   0.000   0.000   0.000   0.000
  0.000   0.000   0.000   0.000   0.000   0.000   0.000   0.000   0.000   0.000   0.000   0.000   0.000   0.000   0.000   0.000
  0.000   0.000   0.000   0.000   0.000   0.000   0.000   0.000   0.000   0.000   0.000   0.000   0.000   0.000   0.000   0.000
  0.000   0.000   0.000   0.000   0.000   0.000   0.000   0.000   0.000   0.000   0.000   0.000   0.000   0.000   0.000   0.000
  0.000   0.000   0.000   0.000   0.000   0.000   0.000   0.000   0.000   0.000   0.000   0.000   0.000   0.000   0.000   0.000
  0.000   0.000   0.000   0.000   0.000   0.000   0.000   0.000   0.000   0.000   1.000   0.000   0.000   0.000   0.000   0.000
  0.000   0.000   0.000   0.000   0.000   0.000   0.000   0.000   0.000   0.000   0.000   0.000   0.000   0.000   0.000   0.000
  0.000   0.000   0.000   0.000   0.000   0.000   0.000   0.000   0.000   0.000   0.000   0.000   0.000   0.000   0.000   0.000
  0.000   0.000   0.000   0.000   0.000   0.000   0.000   0.000   0.000   0.000   0.000   0.000   0.000   0.000   0.000   0.000
  0.000   0.000   0.000   0.000   0.000   0.000   0.000   0.000   0.000   0.000   0.000   0.000   0.000   0.000   0.000   0.000
  0.000   0.000   0.000   0.000   0.000   0.000   0.000   0.000   0.000   0.000   0.000   0.000   0.000   0.000   0.000   0.000
  0.000   0.000   0.000   0.000   0.000   0.000   0.000   0.000   0.000   0.000   0.000   0.000   0.000   0.000   0.000   0.000
  0.000   0.000   0.000   0.000   0.000   0.000   0.000   0.000   0.000   0.000   0.000   0.000   0.000   0.000   0.000   0.000


------------------------ aborting loop because EDIFF is reached ----------------------------------------


 


 total charge     
 
# of ion       s       p       d       tot
------------------------------------------
    1        0.655   0.743   4.468   5.866
    2        0.453   0.638   4.395   5.487
    3        1.354   2.370   0.000   3.725
    4        1.357   2.369   0.000   3.726
    5        1.359   2.346   0.000   3.705
    6        1.361   2.348   0.000   3.709
--------------------------------------------------
tot          6.541  10.813   8.863  26.217
 
    CHARGE:  cpu time    0.0580: real time    0.0580
    FORLOC:  cpu time    0.0013: real time    0.0013
    FORHF :  cpu time 2983.1644: real time 2985.0295
    FORNL :  cpu time    0.4702: real time    0.4704
    STRESS:  cpu time    6.5497: real time    6.5532
    FORCOR:  cpu time    0.1134: real time    0.9596
    FORHAR:  cpu time    0.0057: real time    0.0057
    OFIELD:  cpu time    0.0000: real time    0.0000

 ---------------------------------------------------------------------------------------------

         DFTD3 V3.0 Rev 1        
 IVDW         = 12
 DF pbe       
 parameters
 VDW_S6       =    1.0000
 VDW_S8       =    0.7875
 VDW_A1       =    0.4289
 VDW_A2       =    4.4407
 k1-k3        =   16.0000    1.3333   -4.0000
 VDW_RADIUS   =   50.2022 A
 VDW_CNRADIUS =   21.1671 A
 Edisp (eV)   -2.24804

 E6    (eV) :    -1.2908
 E8    (eV) :    -0.9572
 % E8        : 42.58
    FORVDW:  cpu time    0.0307: real time    0.0530

  FORCE on cell =-STRESS in cart. coord.  units (eV):
  Direction    XX          YY          ZZ          XY          YZ          ZX
  --------------------------------------------------------------------------------------
  Alpha Z    58.17251    58.17251    58.17251
  Ewald    7229.90748  7229.90015 -8375.79345     0.00765     0.00674     0.01421
  Hartree  7537.78728  7537.78409 -7467.96305     0.00335     0.00158     0.00333
  E(xc)    -106.95811  -106.95813  -107.99806     0.00002    -0.00009    -0.00020
  Local  -15368.79674-15368.78663 15230.19739    -0.01065    -0.00783    -0.01654
  n-local   243.84053   243.84064   254.55519    -0.00008     0.00048     0.00097
  augment   -55.83651   -55.83648   -57.96834     0.00003    -0.00003    -0.00007
  Kinetic   477.22346   477.22350   480.45968    -0.00010     0.00115     0.00242
  Fock            NaN         NaN         NaN         NaN         NaN         NaN
  vdW        -2.33319    -2.33320    -1.66248     0.00001     0.00000     0.00000
  -------------------------------------------------------------------------------------
  Total           NaN         NaN         NaN         NaN         NaN         NaN
  in kB           NaN         NaN         NaN         NaN         NaN         NaN
  external pressure =         NaN kB  Pullay stress =        0.00 kB


 VOLUME and BASIS-vectors are now :
 -----------------------------------------------------------------------------
  energy-cutoff  :      500.00
  volume of cell :      208.25
      direct lattice vectors                 reciprocal lattice vectors
     3.152059248  0.000001834  0.000000000     0.317252813  0.183165354  0.000000000
    -1.576021061  2.729758131  0.000000000    -0.000000213  0.366332699  0.000000000
     0.000000000  0.000000000 24.202400207     0.000000000  0.000000000  0.041318216

  length of vectors
     3.152059248  3.152050418 24.202400207     0.366331673  0.366332699  0.041318216


 FORCES acting on ions
    electron-ion (+dipol)            ewald-force                    non-local-force                 convergence-correction
 -----------------------------------------------------------------------------------------------
   0.884E-04 0.133E-05 0.569E+03   -.703E-04 -.195E-04 -.569E+03   -.208E-04 -.119E-04 -.616E-02   -.239E-04 0.940E-05 0.156E-01
   -.420E-03 -.116E-03 -.569E+03   0.349E-03 0.187E-03 0.569E+03   0.220E-03 0.116E-03 0.474E-03   0.142E-03 -.792E-04 -.163E-01
   0.785E-03 0.338E-03 0.100E+04   -.576E-03 -.277E-03 -.101E+04   -.420E-03 -.173E-03 0.450E+01   -.960E-04 -.303E-04 0.168E-01
   0.126E-02 0.997E-03 0.135E+03   -.159E-02 -.771E-03 -.131E+03   0.278E-03 -.702E-04 -.460E+01   0.380E-04 -.152E-03 -.487E-02
   -.213E-02 -.742E-03 -.100E+04   0.167E-02 0.783E-03 0.101E+04   0.805E-03 0.236E-03 -.451E+01   0.185E-03 -.126E-04 -.283E-01
   0.247E-03 -.534E-04 -.135E+03   0.216E-03 0.965E-04 0.130E+03   -.868E-03 -.328E-03 0.468E+01   -.118E-03 0.283E-04 0.154E-01
 -----------------------------------------------------------------------------------------------
   -.172E-03 0.425E-03 -.743E-01   0.240E-13 0.352E-13 -.171E-12   -.544E-05 -.231E-03 0.663E-01   0.127E-03 -.237E-03 -.156E-02
 
 
 POSITION                                       TOTAL-FORCE (eV/Angst)
 -----------------------------------------------------------------------------------
     -0.00341      1.81819      7.06847              NaN           NaN           NaN
      1.57108      2.72738     13.10690              NaN           NaN           NaN
      1.57265      0.90829      5.49316              NaN           NaN           NaN
      1.57260      0.90826      8.64154              NaN           NaN           NaN
     -0.00501      1.81743     14.67595              NaN           NaN           NaN
     -0.00486      1.81750     11.54184              NaN           NaN           NaN
 -----------------------------------------------------------------------------------
    total drift:                                     NaN           NaN           NaN


--------------------------------------------------------------------------------------------------------



  FREE ENERGIE OF THE ION-ELECTRON SYSTEM (eV)
  ---------------------------------------------------
  free  energy   TOTEN  =       -56.51973310 eV

  energy  without entropy=      -56.51973310  energy(sigma->0) =      -56.51973310
 


--------------------------------------------------------------------------------------------------------


    POTLOK:  cpu time    0.2330: real time    0.2340


--------------------------------------------------------------------------------------------------------


 writing wavefunctions
     LOOP+:  cpu time13533.4252: real time13547.1115
    4ORBIT:  cpu time    0.0000: real time    0.0000
 


 total charge     
 
# of ion       s       p       d       tot
------------------------------------------
    1        0.655   0.743   4.468   5.866
    2        0.453   0.638   4.395   5.487
    3        1.354   2.370   0.000   3.725
    4        1.357   2.369   0.000   3.726
    5        1.359   2.346   0.000   3.705
    6        1.361   2.348   0.000   3.709
--------------------------------------------------
tot          6.541  10.813   8.863  26.217
 

 total amount of memory used by VASP MPI-rank0   386305. kBytes
=======================================================================

   base      :      30000. kBytes
   nonl-proj :     309399. kBytes
   fftplans  :       1034. kBytes
   grid      :       5266. kBytes
   one-center:         93. kBytes
   HF        :        194. kBytes
   nonlr-proj:       5387. kBytes
   wavefun   :      34932. kBytes
 
  
  
 General timing and accounting informations for this job:
 ========================================================
  
                  Total CPU time used (sec):    13702.434
                            User time (sec):    13650.528
                          System time (sec):       51.906
                         Elapsed time (sec):    13717.479
  
                   Maximum memory used (kb):     1063392.
                   Average memory used (kb):           0.
  
                          Minor page faults:     16350387
                          Major page faults:            0
                 Voluntary context switches:       257025
