  32   32    1    1
  9.6072750e+02   1.5000000e-09   1.5000000e-09   4.2699000e-10   5.0000000e-16
            1.000000e-04
  CAR
 DOS and projected DOS file by LOBSTER. Energy is shifted such that the Fermi level lies at 0 eV. 
      4.28662352     -23.76346592   561      -1.72410993       1.00000000
-22.03936   0.00000   0.00000
-21.98927   0.00000   0.00000
-21.93918   0.00000   0.00000
-21.88909   0.00000   0.00000
-21.83900   0.00000   0.00000
-21.78891   0.00000   0.00000
-21.73882   0.00000   0.00000
-21.68873   0.00000   0.00000
-21.63864   0.00000   0.00000
-21.58855   0.00000   0.00000
-21.53846   0.00000   0.00000
-21.48837   0.00000   0.00000
-21.43828   0.00000   0.00000
-21.38819   0.00000   0.00000
-21.33810   0.00000   0.00000
-21.28801   0.00000   0.00000
-21.23792   0.00000   0.00000
-21.18784   0.00000   0.00000
-21.13775   0.00000   0.00000
-21.08766   0.00000   0.00000
-21.03757   0.00000   0.00000
-20.98748   0.00000   0.00000
-20.93739   0.00000   0.00000
-20.88730   0.00000   0.00000
-20.83721   0.00000   0.00000
-20.78712   0.00000   0.00000
-20.73703   0.00000   0.00000
-20.68694   0.00000   0.00000
-20.63685   0.00000   0.00000
-20.58676   0.00000   0.00000
-20.53667   0.00000   0.00000
-20.48658   0.00001   0.00000
-20.43649   0.00004   0.00000
-20.38640   0.00020   0.00001
-20.33631   0.00081   0.00005
-20.28623   0.00293   0.00020
-20.23614   0.00944   0.00067
-20.18605   0.02699   0.00202
-20.13596   0.06855   0.00546
-20.08587   0.15492   0.01322
-20.03578   0.31211   0.02885
-19.98569   0.56217   0.05701
-19.93560   0.90933   0.10256
-19.88551   1.33025   0.16919
-19.83542   1.77993   0.25834
-19.78533   2.21645   0.36936
-19.73524   2.63116   0.50116
-19.68515   3.05927   0.65440
-19.63506   3.55470   0.83245
-19.58497   4.14035   1.03984
-19.53488   4.76927   1.27873
-19.48479   5.32988   1.54570
-19.43470   5.69703   1.83106
-19.38462   5.79520   2.12134
-19.33453   5.63233   2.40346
-19.28444   5.28685   2.66827
-19.23435   4.86348   2.91188
-19.18426   4.44861   3.13471
-19.13417   4.08787   3.33947
-19.08408   3.79026   3.52932
-19.03399   3.54812   3.70704
-18.98390   3.35691   3.87519
-18.93381   3.22284   4.03662
-18.88372   3.15922   4.19486
-18.83363   3.18325   4.35431
-18.78354   3.32260   4.52074
-18.73345   3.62185   4.70215
-18.68336   4.12445   4.90875
-18.63327   4.82357   5.15036
-18.58318   5.61672   5.43169
-18.53309   6.31866   5.74819
-18.48301   6.74684   6.08614
-18.43292   6.82439   6.42797
-18.38283   6.61782   6.75945
-18.33274   6.27760   7.07389
-18.28265   5.93193   7.37102
-18.23256   5.61990   7.65252
-18.18247   5.30855   7.91842
-18.13238   4.96419   8.16707
-18.08229   4.60904   8.39794
-18.03220   4.31695   8.61417
-17.98211   4.15612   8.82235
-17.93202   4.12801   9.02912
-17.88193   4.15348   9.23716
-17.83184   4.12200   9.44363
-17.78175   3.97051   9.64251
-17.73166   3.73047   9.82937
-17.68157   3.50363  10.00487
-17.63148   3.38547  10.17444
-17.58140   3.39865  10.34468
-17.53131   3.48656  10.51932
-17.48122   3.56356  10.69781
-17.43113   3.57680  10.87697
-17.38104   3.53805  11.05419
-17.33095   3.51816  11.23042
-17.28086   3.62090  11.41178
-17.23077   3.94836  11.60956
-17.18068   4.55752  11.83784
-17.13059   5.41352  12.10900
-17.08050   6.36698  12.42792
-17.03041   7.18758  12.78794
-16.98032   7.65515  13.17138
-16.93023   7.66371  13.55525
-16.88014   7.27600  13.91970
-16.83005   6.69305  14.25496
-16.77996   6.15447  14.56323
-16.72987   5.82422  14.85496
-16.67979   5.72272  15.14161
-16.62970   5.73858  15.42905
-16.57961   5.70878  15.71500
-16.52952   5.51806  15.99140
-16.47943   5.15989  16.24985
-16.42934   4.73059  16.48681
-16.37925   4.37193  16.70579
-16.32916   4.20014  16.91618
-16.27907   4.25195  17.12916
-16.22898   4.46293  17.35270
-16.17889   4.68940  17.58759
-16.12880   4.77583  17.82681
-16.07871   4.64032  18.05924
-16.02862   4.32419  18.27584
-15.97853   3.96651  18.47452
-15.92844   3.71942  18.66082
-15.87835   3.66386  18.84434
-15.82826   3.77869  19.03361
-15.77818   3.97073  19.23251
-15.72809   4.13351  19.43955
-15.67800   4.19587  19.64972
-15.62791   4.14014  19.85710
-15.57782   3.99346  20.05713
-15.52773   3.81023  20.24798
-15.47764   3.66189  20.43140
-15.42755   3.63596  20.61352
-15.37746   3.82969  20.80535
-15.32737   4.32108  21.02179
-15.27728   5.11889  21.27819
-15.22719   6.12095  21.58479
-15.17710   7.12118  21.94149
-15.12701   7.88350  22.33637
-15.07692   8.25176  22.74969
-15.02683   8.22851  23.16185
-14.97674   7.96623  23.56088
-14.92665   7.67372  23.94525
-14.87657   7.49881  24.32086
-14.82648   7.46068  24.69456
-14.77639   7.46533  25.06850
-14.72630   7.38272  25.43829
-14.67621   7.13339  25.79560
-14.62612   6.73723  26.13306
-14.57603   6.30449  26.44885
-14.52594   5.97862  26.74832
-14.47585   5.85969  27.04183
-14.42576   5.94445  27.33958
-14.37567   6.11477  27.64587
-14.32558   6.18666  27.95575
-14.27549   5.99955  28.25627
-14.22540   5.49807  28.53166
-14.17531   4.75997  28.77009
-14.12522   3.95498  28.96819
-14.07513   3.26117  29.13154
-14.02504   2.78802  29.27119
-13.97496   2.54612  29.39872
-13.92487   2.47078  29.52248
-13.87478   2.47427  29.64642
-13.82469   2.49250  29.77127
-13.77460   2.50460  29.89672
-13.72451   2.52379  30.02314
-13.67442   2.56995  30.15186
-13.62433   2.64174  30.28419
-13.57424   2.70976  30.41992
-13.52415   2.74130  30.55723
-13.47406   2.74232  30.69459
-13.42397   2.78119  30.83390
-13.37388   2.96716  30.98252
-13.32379   3.38963  31.15230
-13.27370   4.05410  31.35537
-13.22361   4.85582  31.59860
-13.17352   5.61038  31.87962
-13.12343   6.12845  32.18659
-13.07335   6.29393  32.50185
-13.02326   6.10091  32.80744
-12.97317   5.63264  33.08958
-12.92308   5.00906  33.34048
-12.87299   4.34772  33.55825
-12.82290   3.75816  33.74650
-12.77281   3.34975  33.91428
-12.72272   3.22283  34.07571
-12.67263   3.44058  34.24805
-12.62254   4.00726  34.44877
-12.57245   4.87325  34.69287
-12.52236   5.95856  34.99133
-12.47227   7.16763  35.35035
-12.42218   8.38018  35.77011
-12.37209   9.43180  36.24255
-12.32200  10.11877  36.74939
-12.27191  10.25242  37.26293
-12.22182   9.74976  37.75129
-12.17174   8.70518  38.18733
-12.12165   7.38404  38.55719
-12.07156   6.12776  38.86412
-12.02147   5.22259  39.12572
-11.97138   4.80472  39.36639
-11.92129   4.83866  39.60875
-11.87120   5.15813  39.86712
-11.82111   5.53932  40.14458
-11.77102   5.78163  40.43418
-11.72093   5.77400  40.72340
-11.67084   5.52231  41.00001
-11.62075   5.12382  41.25666
-11.57066   4.70396  41.49227
-11.52057   4.35569  41.71045
-11.47048   4.11749  41.91669
-11.42039   3.99275  42.11669
-11.37030   3.97903  42.31599
-11.32021   4.07380  42.52005
-11.27013   4.25548  42.73320
-11.22004   4.47124  42.95716
-11.16995   4.65746  43.19045
-11.11986   4.77837  43.42980
-11.06977   4.84209  43.67234
-11.01968   4.87605  43.91658
-10.96959   4.88943  44.16148
-10.91950   4.86405  44.40512
-10.86941   4.78041  44.64457
-10.81932   4.64772  44.87737
-10.76923   4.50768  45.10316
-10.71914   4.41326  45.32422
-10.66905   4.40592  45.54491
-10.61896   4.50657  45.77064
-10.56887   4.71626  46.00687
-10.51878   5.01755  46.25820
-10.46869   5.37511  46.52744
-10.41860   5.73904  46.81490
-10.36852   6.04885  47.11789
-10.31843   6.23629  47.43026
-10.26834   6.23395  47.74251
-10.21825   5.99967  48.04303
-10.16816   5.55040  48.32105
-10.11807   4.97972  48.57048
-10.06798   4.43780  48.79277
-10.01789   4.08064  48.99716
 -9.96780   4.01760  49.19840
 -9.91771   4.28432  49.41300
 -9.86762   4.84653  49.65576
 -9.81753   5.61943  49.93724
 -9.76744   6.48454  50.26205
 -9.71735   7.29999  50.62770
 -9.66726   7.91789  51.02430
 -9.61717   8.22153  51.43611
 -9.56708   8.17342  51.84551
 -9.51699   7.84225  52.23833
 -9.46691   7.37871  52.60792
 -9.41682   6.94166  52.95563
 -9.36673   6.61721  53.28708
 -9.31664   6.38674  53.60699
 -9.26655   6.16811  53.91595
 -9.21646   5.90017  54.21148
 -9.16637   5.60931  54.49245
 -9.11628   5.41394  54.76363
 -9.06619   5.46607  55.03742
 -9.01610   5.86408  55.33115
 -8.96601   6.58064  55.66077
 -8.91592   7.44384  56.03363
 -8.86583   8.19092  56.44391
 -8.81574   8.57949  56.87365
 -8.76565   8.50107  57.29946
 -8.71556   8.02874  57.70162
 -8.66547   7.36717  58.07064
 -8.61538   6.73810  58.40814
 -8.56530   6.27700  58.72256
 -8.51521   6.00404  59.02329
 -8.46512   5.87516  59.31758
 -8.41503   5.86060  59.61113
 -8.36494   5.98100  59.91072
 -8.31485   6.26923  60.22474
 -8.26476   6.69366  60.56002
 -8.21467   7.12063  60.91669
 -8.16458   7.36627  61.28566
 -8.11449   7.30751  61.65169
 -8.06440   6.96381  62.00050
 -8.01431   6.48741  62.32546
 -7.96422   6.08333  62.63017
 -7.91413   5.93317  62.92736
 -7.86404   6.16965  63.23639
 -7.81395   6.88373  63.58119
 -7.76386   8.11658  63.98775
 -7.71377   9.81713  64.47948
 -7.66369  11.79669  65.07037
 -7.61360  13.73600  65.75840
 -7.56351  15.27538  66.52353
 -7.51342  16.15912  67.33294
 -7.46333  16.35543  68.15217
 -7.41324  16.07440  68.95733
 -7.36315  15.66458  69.74196
 -7.31306  15.43992  70.51534
 -7.26297  15.52650  71.29305
 -7.21288  15.80496  72.08471
 -7.16279  15.97691  72.88499
 -7.11270  15.72614  73.67270
 -7.06261  14.89842  74.41895
 -7.01252  13.60513  75.10043
 -6.96243  12.18272  75.71065
 -6.91234  11.01999  76.26264
 -6.86225  10.35875  76.78150
 -6.81216  10.20327  77.29258
 -6.76208  10.39116  77.81307
 -6.71199  10.74416  78.35123
 -6.66190  11.16095  78.91028
 -6.61181  11.59290  79.49096
 -6.56172  11.97239  80.09065
 -6.51163  12.20330  80.70191
 -6.46154  12.24275  81.31514
 -6.41145  12.19222  81.92584
 -6.36136  12.28900  82.54139
 -6.31127  12.76753  83.18091
 -6.26118  13.67526  83.86590
 -6.21109  14.78373  84.60641
 -6.16100  15.68046  85.39183
 -6.11091  15.99404  86.19296
 -6.06082  15.59639  86.97418
 -6.01073  14.64114  87.70755
 -5.96064  13.42930  88.38021
 -5.91055  12.22319  88.99246
 -5.86047  11.14295  89.55061
 -5.81038  10.18362  90.06070
 -5.76029   9.29536  90.52630
 -5.71020   8.45339  90.94973
 -5.66011   7.68705  91.33477
 -5.61002   7.07141  91.68897
 -5.55993   6.68886  92.02401
 -5.50984   6.56954  92.35307
 -5.45975   6.64035  92.68569
 -5.40966   6.72790  93.02268
 -5.35957   6.63783  93.35517
 -5.30948   6.27576  93.66952
 -5.25939   5.73387  93.95672
 -5.20930   5.28134  94.22126
 -5.15921   5.25489  94.48448
 -5.10912   5.90199  94.78011
 -5.05903   7.25312  95.14341
 -5.00894   9.08728  95.59859
 -4.95886  11.01283  96.15021
 -4.90877  12.62572  96.78263
 -4.85868  13.66030  97.46687
 -4.80859  14.05352  98.17080
 -4.75850  13.90341  98.86721
 -4.70841  13.37035  99.53693
 -4.65832  12.59557 100.16783
 -4.60823  11.68421 100.75309
 -4.55814  10.74648 101.29137
 -4.50805   9.94222 101.78937
 -4.45796   9.46625 102.26353
 -4.40787   9.45976 102.73737
 -4.35778   9.90788 103.23365
 -4.30769  10.61657 103.76542
 -4.25760  11.30609 104.33174
 -4.20751  11.75823 104.92070
 -4.15742  11.90718 105.51713
 -4.10733  11.81767 106.10907
 -4.05725  11.59051 106.68963
 -4.00716  11.28317 107.25480
 -3.95707  10.89998 107.80077
 -3.90698  10.44049 108.32373
 -3.85689   9.95245 108.82224
 -3.80680   9.53944 109.30007
 -3.75671   9.31017 109.76641
 -3.70662   9.30185 110.23233
 -3.65653   9.43568 110.70496
 -3.60644   9.54362 111.18300
 -3.55635   9.45155 111.65642
 -3.50626   9.06215 112.11034
 -3.45617   8.39041 112.53061
 -3.40608   7.55055 112.90881
 -3.35599   6.72136 113.24548
 -3.30590   6.10281 113.55117
 -3.25581   5.85506 113.84444
 -3.20572   6.02262 114.14611
 -3.15564   6.48356 114.47087
 -3.10555   6.97512 114.82025
 -3.05546   7.20532 115.18116
 -3.00537   6.99497 115.53154
 -2.95528   6.36326 115.85027
 -2.90519   5.50592 116.12606
 -2.85510   4.68793 116.36087
 -2.80501   4.12456 116.56747
 -2.75492   3.91451 116.76354
 -2.70483   4.03832 116.96582
 -2.65474   4.39614 117.18602
 -2.60465   4.85823 117.42937
 -2.55456   5.31858 117.69577
 -2.50447   5.74295 117.98343
 -2.45438   6.18775 118.29338
 -2.40429   6.76577 118.63227
 -2.35420   7.56654 119.01127
 -2.30411   8.58014 119.44105
 -2.25403   9.67838 119.92583
 -2.20394  10.66355 120.45996
 -2.15385  11.34339 121.02815
 -2.10376  11.58232 121.60830
 -2.05367  11.31643 122.17513
 -2.00358  10.55421 122.70379
 -1.95349   9.38079 123.17367
 -1.90340   7.95584 123.57217
 -1.85331   6.48428 123.89696
 -1.80322   5.16034 124.15544
 -1.75313   4.11275 124.36145
 -1.70304   3.38159 124.53083
 -1.65295   2.93326 124.67775
 -1.60286   2.69492 124.81274
 -1.55277   2.58603 124.94227
 -1.50268   2.53754 125.06938
 -1.45259   2.50130 125.19467
 -1.40250   2.45500 125.31764
 -1.35242   2.40439 125.43807
 -1.30233   2.37928 125.55725
 -1.25224   2.41818 125.67837
 -1.20215   2.54246 125.80572
 -1.15206   2.73253 125.94260
 -1.10197   2.92361 126.08904
 -1.05188   3.02868 126.24074
 -1.00179   2.97968 126.38999
 -0.95170   2.76538 126.52851
 -0.90161   2.44319 126.65089
 -0.85152   2.11371 126.75676
 -0.80143   1.86919 126.85039
 -0.75134   1.74808 126.93795
 -0.70125   1.72702 127.02445
 -0.65116   1.75423 127.11232
 -0.60107   1.79429 127.20220
 -0.55098   1.84574 127.29465
 -0.50089   1.91948 127.39080
 -0.45081   2.00297 127.49112
 -0.40072   2.04742 127.59368
 -0.35063   1.99145 127.69343
 -0.30054   1.80075 127.78363
 -0.25045   1.49168 127.85834
 -0.20036   1.12309 127.91460
 -0.15027   0.76664 127.95300
 -0.10018   0.47759 127.97692
 -0.05009   0.28185 127.99104
  0.00000   0.18025 128.00007
  0.05009   0.16078 128.00812
  0.10018   0.20871 128.01858
  0.15027   0.31000 128.03410
  0.20036   0.44939 128.05661
  0.25045   0.60781 128.08706
  0.30054   0.76295 128.12527
  0.35063   0.89489 128.17010
  0.40072   0.99679 128.22003
  0.45081   1.08699 128.27447
  0.50089   1.21528 128.33535
  0.55098   1.45513 128.40823
  0.60107   1.87862 128.50233
  0.65116   2.52037 128.62858
  0.70125   3.34513 128.79613
  0.75134   4.23842 129.00843
  0.80143   5.03404 129.26058
  0.85152   5.57467 129.53982
  0.90161   5.77825 129.82925
  0.95170   5.67247 130.11338
  1.00179   5.37642 130.38268
  1.05188   5.04106 130.63518
  1.10197   4.78455 130.87484
  1.15206   4.65641 131.10807
  1.20215   4.63985 131.34048
  1.25224   4.67606 131.57470
  1.30233   4.68857 131.80955
  1.35242   4.60384 132.04016
  1.40250   4.37822 132.25946
  1.45259   4.03096 132.46137
  1.50268   3.65751 132.64457
  1.55277   3.39591 132.81467
  1.60286   3.35601 132.98277
  1.65295   3.56115 133.16114
  1.70304   3.94802 133.35890
  1.75313   4.42081 133.58033
  1.80322   4.90831 133.82619
  1.85331   5.37682 134.09551
  1.90340   5.80058 134.38606
  1.95349   6.13495 134.69336
  2.00358   6.33104 135.01047
  2.05367   6.38284 135.33019
  2.10376   6.35839 135.64867
  2.15385   6.37385 135.96794
  2.20394   6.51830 136.29443
  2.25403   6.78304 136.63419
  2.30411   7.05179 136.98741
  2.35420   7.16471 137.34629
  2.40429   7.01500 137.69767
  2.45438   6.61307 138.02891
  2.50447   6.07794 138.33335
  2.55456   5.57034 138.61237
  2.60465   5.22153 138.87391
  2.65474   5.10353 139.12955
  2.70483   5.24058 139.39204
  2.75492   5.62570 139.67383
  2.80501   6.21370 139.98507
  2.85510   6.90009 140.33069
  2.90519   7.52076 140.70740
  2.95528   7.89542 141.10288
  3.00537   7.90172 141.49867
  3.05546   7.53867 141.87628
  3.10555   6.93957 142.22388
  3.15564   6.32293 142.54059
  3.20572   5.90306 142.83627
  3.25581   5.79928 143.12676
  3.30590   5.98241 143.42641
  3.35599   6.28401 143.74117
  3.40608   6.47217 144.06536
  3.45617   6.36408 144.38414
  3.50626   5.91742 144.68054
  3.55635   5.24620 144.94332
  3.60644   4.55357 145.17140
  3.65653   4.03120 145.37332
  3.70662   3.79091 145.56321
  3.75671   3.85819 145.75646
  3.80680   4.20516 145.96709
  3.85689   4.78327 146.20669
  3.90698   5.53650 146.48401
  3.95707   6.40196 146.80468
  4.00716   7.30974 147.17082
  4.05725   8.18546 147.58082
  4.10733   8.95816 148.02953
  4.15742   9.57929 148.50935
  4.20751  10.04831 149.01267
  4.25760  10.42081 149.53464
  4.30769  10.77470 150.07434
  4.35778  11.14372 150.63252
  4.40787  11.46724 151.20691
  4.45796  11.60715 151.78831
  4.50805  11.43715 152.36119
  4.55814  10.94817 152.90957
  4.60823  10.29094 153.42504
  4.65832   9.71679 153.91175
  4.70841   9.45591 154.38539
  4.75850   9.62044 154.86727
  4.80859  10.19161 155.37777
  4.85868  11.07051 155.93228
  4.90877  12.12189 156.53946
  4.95886  13.17034 157.19916
  5.00894  13.98448 157.89963
  5.05903  14.31982 158.61690
  5.10912  14.03923 159.32012
  5.15921  13.23732 159.98317
  5.20930  12.25604 160.59707
  5.25939  11.54217 161.17521
  5.30948  11.41771 161.74712
  5.35957  11.90671 162.34352
  5.40966  12.72597 162.98095
  5.45975  13.43530 163.65392
  5.50984  13.64990 164.33764
  5.55993  13.20312 164.99897
  5.61002  12.19780 165.60995
  5.66011  10.94448 166.15816
  5.71020   9.82344 166.65021
  5.76029   9.12767 167.10741
  5.81038   8.95011 167.55571
  5.86047   9.16376 168.01472
  5.91055   9.50223 168.49068
  5.96064   9.69808 168.97645
  6.01073   9.60859 169.45774
      6.01073345     -22.03935599   561      -1.72410993       1.00000000; Z=  6; 2s 2p_y 2p_z 2p_x 
-22.03936   0.00000   0.00000   0.00000   0.00000
-21.98927   0.00000   0.00000   0.00000   0.00000
-21.93918   0.00000   0.00000   0.00000   0.00000
-21.88909   0.00000   0.00000   0.00000   0.00000
-21.83900   0.00000   0.00000   0.00000   0.00000
-21.78891   0.00000   0.00000   0.00000   0.00000
-21.73882   0.00000   0.00000   0.00000   0.00000
-21.68873   0.00000   0.00000   0.00000   0.00000
-21.63864   0.00000   0.00000   0.00000   0.00000
-21.58855   0.00000   0.00000   0.00000   0.00000
-21.53846   0.00000   0.00000   0.00000   0.00000
-21.48837   0.00000   0.00000   0.00000   0.00000
-21.43828   0.00000   0.00000   0.00000   0.00000
-21.38819   0.00000   0.00000   0.00000   0.00000
-21.33810   0.00000   0.00000   0.00000   0.00000
-21.28801   0.00000   0.00000   0.00000   0.00000
-21.23792   0.00000   0.00000   0.00000   0.00000
-21.18784   0.00000   0.00000   0.00000   0.00000
-21.13775   0.00000   0.00000   0.00000   0.00000
-21.08766   0.00000   0.00000   0.00000   0.00000
-21.03757   0.00000   0.00000   0.00000   0.00000
-20.98748   0.00000   0.00000   0.00000   0.00000
-20.93739   0.00000   0.00000   0.00000   0.00000
-20.88730   0.00000   0.00000   0.00000   0.00000
-20.83721   0.00000   0.00000   0.00000   0.00000
-20.78712   0.00000   0.00000   0.00000   0.00000
-20.73703   0.00000   0.00000   0.00000   0.00000
-20.68694   0.00000   0.00000   0.00000   0.00000
-20.63685   0.00000   0.00000   0.00000   0.00000
-20.58676   0.00000   0.00000   0.00000   0.00000
-20.53667   0.00000   0.00000   0.00000   0.00000
-20.48658   0.00000   0.00000   0.00000   0.00000
-20.43649   0.00000   0.00000   0.00000   0.00000
-20.38640   0.00001   0.00000   0.00000   0.00000
-20.33631   0.00003   0.00000   0.00000   0.00000
-20.28623   0.00010   0.00000   0.00000   0.00000
-20.23614   0.00031   0.00000   0.00000   0.00001
-20.18605   0.00088   0.00000   0.00001   0.00002
-20.13596   0.00222   0.00001   0.00002   0.00005
-20.08587   0.00500   0.00002   0.00004   0.00012
-20.03578   0.01003   0.00004   0.00009   0.00023
-19.98569   0.01800   0.00008   0.00018   0.00041
-19.93560   0.02897   0.00013   0.00031   0.00065
-19.88551   0.04215   0.00022   0.00050   0.00092
-19.83542   0.05602   0.00034   0.00073   0.00120
-19.78533   0.06920   0.00053   0.00099   0.00145
-19.73524   0.08139   0.00080   0.00126   0.00167
-19.68515   0.09372   0.00121   0.00149   0.00190
-19.63506   0.10794   0.00176   0.00168   0.00219
-19.58497   0.12485   0.00241   0.00184   0.00254
-19.53488   0.14311   0.00304   0.00201   0.00294
-19.48479   0.15941   0.00349   0.00225   0.00328
-19.43470   0.16998   0.00361   0.00256   0.00349
-19.38462   0.17253   0.00336   0.00298   0.00351
-19.33453   0.16727   0.00280   0.00349   0.00335
-19.28444   0.15653   0.00208   0.00410   0.00307
-19.23435   0.14340   0.00137   0.00478   0.00274
-19.18426   0.13047   0.00075   0.00548   0.00244
-19.13417   0.11911   0.00027   0.00617   0.00219
-19.08408   0.10964  -0.00007   0.00679   0.00201
-19.03399   0.10187  -0.00031   0.00734   0.00187
-18.98390   0.09567  -0.00045   0.00784   0.00178
-18.93381   0.09118  -0.00045   0.00830   0.00174
-18.88372   0.08871  -0.00022   0.00874   0.00174
-18.83363   0.08865   0.00041   0.00911   0.00182
-18.78354   0.09167   0.00170   0.00933   0.00201
-18.73345   0.09891   0.00392   0.00937   0.00235
-18.68336   0.11151   0.00718   0.00929   0.00289
-18.63327   0.12935   0.01127   0.00918   0.00363
-18.58318   0.14977   0.01564   0.00911   0.00446
-18.53309   0.16785   0.01948   0.00900   0.00522
-18.48301   0.17868   0.02213   0.00884   0.00574
-18.43292   0.18010   0.02330   0.00870   0.00595
-18.38283   0.17370   0.02318   0.00884   0.00589
-18.33274   0.16344   0.02226   0.00946   0.00567
-18.28265   0.15283   0.02101   0.01050   0.00541
-18.23256   0.14321   0.01968   0.01159   0.00514
-18.18247   0.13398   0.01833   0.01227   0.00485
-18.13238   0.12431   0.01696   0.01233   0.00454
-18.08229   0.11455   0.01562   0.01202   0.00421
-18.03220   0.10629   0.01447   0.01187   0.00393
-17.98211   0.10112   0.01360   0.01230   0.00374
-17.93202   0.09924   0.01303   0.01325   0.00364
-17.88193   0.09901   0.01258   0.01423   0.00358
-17.83184   0.09802   0.01207   0.01464   0.00349
-17.78175   0.09476   0.01140   0.01421   0.00332
-17.73166   0.08979   0.01065   0.01324   0.00310
-17.68157   0.08524   0.01002   0.01242   0.00292
-17.63148   0.08309   0.00961   0.01242   0.00284
-17.58140   0.08373   0.00938   0.01345   0.00286
-17.53131   0.08577   0.00916   0.01518   0.00292
-17.48122   0.08726   0.00885   0.01695   0.00295
-17.43113   0.08700   0.00855   0.01813   0.00293
-17.38104   0.08526   0.00851   0.01841   0.00287
-17.33095   0.08360   0.00908   0.01797   0.00287
-17.28086   0.08432   0.01057   0.01732   0.00301
-17.23077   0.08975   0.01320   0.01708   0.00339
-17.18068   0.10137   0.01703   0.01765   0.00404
-17.13059   0.11876   0.02174   0.01906   0.00490
-17.08050   0.13896   0.02662   0.02084   0.00584
-17.03041   0.15702   0.03067   0.02231   0.00662
-16.98032   0.16796   0.03302   0.02282   0.00705
-16.93023   0.16903   0.03328   0.02218   0.00704
-16.88014   0.16114   0.03178   0.02079   0.00666
-16.83005   0.14834   0.02933   0.01955   0.00609
-16.77996   0.13576   0.02687   0.01938   0.00555
-16.72987   0.12716   0.02505   0.02076   0.00519
-16.67979   0.12335   0.02401   0.02337   0.00503
-16.62970   0.12231   0.02343   0.02618   0.00498
-16.57961   0.12081   0.02284   0.02803   0.00491
-16.52952   0.11646   0.02191   0.02818   0.00472
-16.47943   0.10898   0.02064   0.02672   0.00440
-16.42934   0.10015   0.01929   0.02448   0.00406
-16.37925   0.09266   0.01821   0.02267   0.00378
-16.32916   0.08869   0.01767   0.02234   0.00367
-16.27907   0.08892   0.01768   0.02386   0.00373
-16.22898   0.09210   0.01805   0.02675   0.00391
-16.17889   0.09549   0.01836   0.02979   0.00407
-16.12880   0.09611   0.01818   0.03166   0.00411
-16.07871   0.09239   0.01730   0.03167   0.00395
-16.02862   0.08519   0.01592   0.03007   0.00363
-15.97853   0.07733   0.01456   0.02781   0.00330
-15.92844   0.07185   0.01377   0.02605   0.00308
-15.87835   0.07029   0.01378   0.02559   0.00305
-15.82826   0.07206   0.01432   0.02667   0.00317
-15.77818   0.07513   0.01490   0.02893   0.00333
-15.72809   0.07739   0.01509   0.03162   0.00344
-15.67800   0.07761   0.01479   0.03383   0.00344
-15.62791   0.07573   0.01416   0.03486   0.00332
-15.57782   0.07244   0.01345   0.03456   0.00314
-15.52773   0.06874   0.01288   0.03334   0.00296
-15.47764   0.06583   0.01269   0.03198   0.00284
-15.42755   0.06520   0.01325   0.03126   0.00288
-15.37746   0.06867   0.01516   0.03167   0.00318
-15.32737   0.07787   0.01901   0.03336   0.00380
-15.27728   0.09314   0.02498   0.03603   0.00477
-15.22719   0.11267   0.03253   0.03901   0.00598
-15.17710   0.13250   0.04036   0.04137   0.00721
-15.12701   0.14797   0.04689   0.04237   0.00822
-15.07692   0.15580   0.05093   0.04186   0.00883
-15.02683   0.15570   0.05225   0.04050   0.00902
-14.97674   0.15033   0.05158   0.03947   0.00892
-14.92665   0.14366   0.05006   0.03983   0.00874
-14.87657   0.13876   0.04858   0.04193   0.00861
-14.82648   0.13641   0.04731   0.04515   0.00855
-14.77639   0.13529   0.04583   0.04825   0.00846
-14.72630   0.13321   0.04364   0.04991   0.00825
-14.67621   0.12863   0.04067   0.04940   0.00785
-14.62612   0.12163   0.03737   0.04688   0.00733
-14.57603   0.11382   0.03458   0.04341   0.00683
-14.52594   0.10752   0.03300   0.04043   0.00649
-14.47585   0.10443   0.03287   0.03912   0.00638
-14.42576   0.10464   0.03383   0.03967   0.00646
-14.37567   0.10634   0.03503   0.04121   0.00661
-14.32558   0.10657   0.03547   0.04215   0.00662
-14.27549   0.10267   0.03436   0.04113   0.00636
-14.22540   0.09367   0.03152   0.03770   0.00579
-14.17531   0.08077   0.02741   0.03260   0.00499
-14.12522   0.06672   0.02293   0.02729   0.00414
-14.07513   0.05447   0.01898   0.02318   0.00342
-14.02504   0.04591   0.01611   0.02101   0.00293
-13.97496   0.04128   0.01433   0.02069   0.00266
-13.92487   0.03960   0.01332   0.02153   0.00255
-13.87478   0.03945   0.01266   0.02271   0.00251
-13.82469   0.03971   0.01213   0.02367   0.00249
-13.77460   0.03997   0.01174   0.02423   0.00247
-13.72451   0.04035   0.01165   0.02460   0.00247
-13.67442   0.04107   0.01191   0.02510   0.00251
-13.62433   0.04204   0.01239   0.02591   0.00257
-13.57424   0.04274   0.01284   0.02690   0.00262
-13.52415   0.04262   0.01307   0.02779   0.00263
-13.47406   0.04176   0.01325   0.02848   0.00261
-13.42397   0.04121   0.01396   0.02943   0.00266
-13.37388   0.04254   0.01599   0.03155   0.00293
-13.32379   0.04700   0.01995   0.03573   0.00354
-13.27370   0.05459   0.02584   0.04215   0.00447
-13.22361   0.06388   0.03289   0.04987   0.00562
-13.17352   0.07245   0.03974   0.05711   0.00675
-13.12343   0.07783   0.04489   0.06216   0.00759
-13.07335   0.07851   0.04718   0.06422   0.00796
-13.02326   0.07437   0.04620   0.06367   0.00779
-12.97317   0.06657   0.04235   0.06141   0.00714
-12.92308   0.05691   0.03669   0.05816   0.00620
-12.87299   0.04723   0.03058   0.05414   0.00519
-12.82290   0.03906   0.02546   0.04959   0.00434
-12.77281   0.03366   0.02250   0.04531   0.00385
-12.72272   0.03205   0.02244   0.04266   0.00385
-12.67263   0.03480   0.02545   0.04283   0.00438
-12.62254   0.04198   0.03132   0.04617   0.00540
-12.57245   0.05306   0.03964   0.05211   0.00685
-12.52236   0.06705   0.04988   0.05979   0.00864
-12.47227   0.08258   0.06117   0.06863   0.01062
-12.42218   0.09786   0.07216   0.07822   0.01255
-12.37209   0.11066   0.08117   0.08768   0.01414
-12.32200   0.11853   0.08654   0.09504   0.01508
-12.27191   0.11948   0.08720   0.09765   0.01519
-12.22182   0.11284   0.08310   0.09364   0.01447
-12.17174   0.09993   0.07532   0.08330   0.01310
-12.12165   0.08390   0.06581   0.06942   0.01143
-12.07156   0.06863   0.05674   0.05617   0.00985
-12.02147   0.05729   0.04982   0.04725   0.00866
-11.97138   0.05142   0.04576   0.04454   0.00799
-11.92129   0.05067   0.04422   0.04773   0.00778
-11.87120   0.05331   0.04408   0.05479   0.00783
-11.82111   0.05694   0.04392   0.06291   0.00789
-11.77102   0.05935   0.04268   0.06935   0.00776
-11.72093   0.05920   0.04018   0.07217   0.00739
-11.67084   0.05637   0.03721   0.07066   0.00691
-11.62075   0.05181   0.03501   0.06537   0.00653
-11.57066   0.04685   0.03441   0.05785   0.00638
-11.52057   0.04262   0.03528   0.05006   0.00646
-11.47048   0.03965   0.03665   0.04382   0.00663
-11.42039   0.03808   0.03751   0.04038   0.00673
-11.37030   0.03786   0.03741   0.04021   0.00673
-11.32021   0.03884   0.03666   0.04303   0.00666
-11.27013   0.04067   0.03582   0.04782   0.00661
-11.22004   0.04273   0.03522   0.05317   0.00662
-11.16995   0.04434   0.03488   0.05776   0.00664
-11.11986   0.04516   0.03472   0.06094   0.00665
-11.06977   0.04534   0.03483   0.06273   0.00666
-11.01968   0.04520   0.03537   0.06343   0.00672
-10.96959   0.04492   0.03636   0.06307   0.00686
-10.91950   0.04442   0.03755   0.06149   0.00703
-10.86941   0.04359   0.03854   0.05866   0.00717
-10.81932   0.04251   0.03913   0.05503   0.00725
-10.76923   0.04145   0.03954   0.05138   0.00729
-10.71914   0.04067   0.04026   0.04853   0.00738
-10.66905   0.04026   0.04174   0.04713   0.00760
-10.61896   0.04014   0.04409   0.04777   0.00798
-10.56887   0.04022   0.04689   0.05106   0.00847
-10.51878   0.04044   0.04938   0.05739   0.00894
-10.46869   0.04075   0.05081   0.06660   0.00929
-10.41860   0.04106   0.05079   0.07764   0.00943
-10.36852   0.04120   0.04950   0.08859   0.00937
-10.31843   0.04088   0.04750   0.09696   0.00917
-10.26834   0.03977   0.04541   0.10030   0.00889
-10.21825   0.03765   0.04359   0.09715   0.00858
-10.16816   0.03462   0.04207   0.08793   0.00826
-10.11807   0.03116   0.04084   0.07512   0.00795
-10.06798   0.02792   0.04011   0.06243   0.00773
-10.01789   0.02549   0.04054   0.05332   0.00775
 -9.96780   0.02417   0.04315   0.04969   0.00821
 -9.91771   0.02401   0.04897   0.05137   0.00928
 -9.86762   0.02489   0.05858   0.05674   0.01106
 -9.81753   0.02672   0.07158   0.06371   0.01348
 -9.76744   0.02937   0.08627   0.07068   0.01626
 -9.71735   0.03251   0.09993   0.07675   0.01891
 -9.66726   0.03548   0.10961   0.08143   0.02090
 -9.61717   0.03744   0.11336   0.08429   0.02180
 -9.56708   0.03770   0.11114   0.08492   0.02155
 -9.51699   0.03616   0.10493   0.08335   0.02045
 -9.46691   0.03342   0.09765   0.08024   0.01904
 -9.41682   0.03051   0.09174   0.07664   0.01779
 -9.36673   0.02830   0.08807   0.07327   0.01693
 -9.31664   0.02704   0.08590   0.07008   0.01639