  COHP#  atomMU  atomNU     distance     translation      ICOHP (at) eF   for spin  1
      1      C1     C13      1.42102       0   0   0          -10.37553 
      2      C1     C26      1.42060       0   0  -1          -10.20764 
      3      C1     C29      1.42090       0   0  -1          -10.23788 
      4      C2     C12      1.42102       0   0   0          -10.37284 
      5      C2     C31      1.42060       0   0  -1          -10.26200 
      6      C2     C32      1.42090       0   0  -1          -10.25601 
      7      C3     C10      1.42102       0   0   0          -10.38402 
      8      C3     C27      1.42090       0   0  -1          -10.23975 
      9      C3     C31      1.42060       0   0  -1          -10.21270 
     10      C4     C14      1.42102       0   0   0          -10.37503 
     11      C4     C25      1.42090       0   0  -1          -10.24228 
     12      C4     C28      1.42060       0   0  -1          -10.21660 
     13      C5     C15      1.42102       0   0   0          -10.42139 
     14      C5     C27      1.42090       0   0  -1          -10.23824 
     15      C5     C28      1.42060       0   0  -1          -10.24618 
     16      C6     C11      1.42102       0   0   0          -10.39475 
     17      C6     C30      1.42060       0   0  -1          -10.20018 
     18      C6     C32      1.42090       0   0  -1          -10.24838 
     19      C7      C9      1.42102       0   0   0          -10.38715 
     20      C7     C29      1.42090       0   0  -1          -10.24114 
     21      C7     C30      1.42060       0   0  -1          -10.25260 
     22      C8     C16      1.42102       0   0   0          -10.36604 
     23      C8     C25      1.42090       0   0  -1          -10.23178 
     24      C8     C26      1.42060       0   0  -1          -10.23006 
     25      C9     C18      1.42090       0   0   0          -10.24978 
     26      C9     C19      1.42060       0   0   0          -10.25251 
     27     C10     C22      1.42060       0   0   0          -10.23807 
     28     C10     C23      1.42090       0   0   0          -10.24945 
     29     C11     C19      1.42060       0   0   0          -10.22088 
     30     C11     C21      1.42090       0   0   0          -10.23412 
     31     C12     C21      1.42090       0   0   0          -10.25252 
     32     C12     C22      1.42060       0   0   0          -10.23534 
     33     C13     C17      1.42060       0   0   0          -10.22930 
     34     C13     C18      1.42090       0   0   0          -10.22811 
     35     C14     C20      1.42090       0   0   0          -10.24029 
     36     C14     C24      1.42060       0   0   0          -10.20883 
     37     C15     C23      1.42090       0   0   0          -10.24463 
     38     C15     C24      1.42060       0   0   0          -10.23295 
     39     C16     C17      1.42060       0   0   0          -10.21882 
     40     C16     C20      1.42090       0   0   0          -10.25431 
     41     C17     C26      1.42102       0   0   0          -10.46159 
     42     C18     C29      1.42102       0   0   0          -10.46906 
     43     C19     C30      1.42102       0   0   0          -10.47655 
     44     C20     C25      1.42102       0   0   0          -10.44604 
     45     C21     C32      1.42102       0   0   0          -10.44671 
     46     C22     C31      1.42102       0   0   0          -10.48630 
     47     C23     C27      1.42102       0   0   0          -10.47584 
     48     C24     C28      1.42102       0   0   0          -10.47954 
